LAMMPS data file via write_data, version 29 Sep 2021, timestep = 5890

10800 atoms
4 atom types

0.20005828636192222 41.75887252699395 xlo xhi
0.6044123869704443 118.0733656508743 ylo yhi
-0.029429442561987488 34.29999743817272 zlo zhi

Masses

1 92.91
2 95.94
3 180.9
4 183.8

Atoms # atomic

4173 3 14.074991559378894 12.379670616851802 15.958297194439075 0 0 0
2 2 2.057156703535443 3.204502117682741 0.06571810396372316 0 0 0
5 4 1.1571855958413224 1.8843058839889322 2.2861651916229246 0 0 0
7 4 2.963094867607451 0.6133657726446676 0.12983854342239157 0 0 0
8 2 4.796436236056364 3.1880424210805005 0.1111380069689004 0 0 0
11 2 3.906167934103416 1.9176908639453485 2.312920088863157 0 0 0
13 4 5.753011753841914 0.6137685220956448 0.12347659090272407 0 0 0
17 2 6.650156045654806 1.8973885516129447 2.3121611302488425 0 0 0
14 4 7.54419024848112 3.183398838694604 0.11814582406972539 0 0 0
4170 2 12.209214356912263 13.649411857532499 13.681624331684384 0 0 0
20 4 10.395045599206737 3.21781193729963 0.09126732408661058 0 0 0
23 1 9.473999401046653 1.8729560668285221 2.2995749935484553 0 0 0
4168 4 13.141028131759397 14.96756017602118 15.960761218762988 0 0 0
26 2 13.139991373101415 3.1969429442968966 0.09082530352525392 0 0 0
29 4 12.247388331451006 1.9134058158346434 2.3330363257592106 0 0 0
31 1 14.117869849360503 0.6144327024214494 0.04392378229379235 0 0 0
32 4 15.875814701499616 3.1935939423026456 0.0889702287607096 0 0 0
35 4 14.990823628826966 1.8989849745127616 2.326789854646015 0 0 0
4167 4 11.271344233663239 12.327731476285093 15.94477824666314 0 0 0
38 1 18.668332626096017 3.2351663748152477 0.047383822760311445 0 0 0
41 2 17.763941356114906 1.8915344168895198 2.297673855304447 0 0 0
4164 4 9.440089635166204 13.614775943662648 13.694207381499623 0 0 0
47 4 20.523039980381103 1.9017086860095334 2.3175399750294225 0 0 0
3 3 0.20167727197790633 4.511597491742176 2.234801294635518 0 0 0
4 4 2.022287384012422 7.107543182012882 2.235988298516623 0 0 0
6 2 1.1438606557752862 5.80193096899377 0.014383590485058316 0 0 0
9 4 2.9825677174014835 4.483518514213171 2.285302839003115 0 0 0
10 1 4.79581397206989 7.114776693176338 2.243583756596535 0 0 0
12 4 3.9188222345469983 5.788516601713667 0.07016733143060572 0 0 0
15 4 5.730284176777418 4.491321583019126 2.3152401773143407 0 0 0
18 2 6.671321919688585 5.8016881981039115 0.03903804371376284 0 0 0
16 1 7.600110010262857 7.106639712780389 2.254589771159752 0 0 0
21 1 8.518067548710967 4.503640279449581 2.3182564429978543 0 0 0
22 4 10.388950397150973 7.098128948712625 2.316559792051663 0 0 0
24 1 9.458842097212443 5.814569015796772 0.04021886784537888 0 0 0
27 2 11.310386134917795 4.509216633074531 2.304865779701268 0 0 0
28 2 13.144562900662923 7.108706216524845 2.312738777822408 0 0 0
30 4 12.235301974283342 5.799128401436286 0.12745258770328072 0 0 0
33 4 14.03957343524069 4.502666442438417 2.3201294539500728 0 0 0
34 1 15.904649978841364 7.12596711300673 2.2939553907031747 0 0 0
36 2 14.965092675312102 5.802424356661982 0.06626253701915902 0 0 0
39 1 16.822054532681168 4.486893053310677 2.271450889886614 0 0 0
40 2 18.67191328700821 7.119238607411059 2.2721866962678825 0 0 0
42 2 17.74102413950484 5.8466798504356445 0.047030201359581886 0 0 0
45 1 19.608019180337884 4.525322291045138 2.313553832809677 0 0 0
48 4 20.53736685495578 5.812451927603292 0.08034189892919752 0 0 0
91 1 0.21288578335495764 8.428863572089222 -0.005870927765736992 0 0 0
92 1 2.053840719191361 11.056023000468318 0.0009515618420530838 0 0 0
95 1 1.1255238215761192 9.749155816976861 2.268307542924703 0 0 0
97 1 3.0196691943782596 8.424365230065609 -0.001445439369479212 0 0 0
98 4 4.861738701762743 11.051491083978503 0.052927271554443246 0 0 0
101 4 3.8907012866195845 9.764686220424798 2.2476988435164893 0 0 0
103 4 5.785653083208417 8.464588001819758 0.05410978315015095 0 0 0
107 2 6.677034298422059 9.756621842548224 2.257177102247012 0 0 0
104 4 7.605974565430658 11.035544388730749 0.11026500389156131 0 0 0
109 4 8.537847012003683 8.451823750580887 0.06754877632966774 0 0 0
110 2 10.362997458180718 11.030256354079173 0.06618275937131693 0 0 0
113 4 9.43433617926251 9.74952303198326 2.2731071241485497 0 0 0
115 4 11.290689319136376 8.412723439548214 0.1076852944073661 0 0 0
116 4 13.138008467721342 11.028350301256303 0.09916573171937824 0 0 0
119 1 12.211532698917996 9.735866841526663 2.3033056961587977 0 0 0
121 4 14.046624086708217 8.406853999150576 0.10786286640209278 0 0 0
122 4 15.876338558203468 11.02100138118653 0.08297343161648647 0 0 0
125 4 14.979115018336794 9.741605013483001 2.3083070417224576 0 0 0
127 2 16.807241519141243 8.419662231985413 0.04006435317266919 0 0 0
128 4 18.634371215709397 11.028462465469094 0.050221382529863884 0 0 0
131 1 17.74229993578904 9.702476909835978 2.278950045499998 0 0 0
133 1 19.60630758405379 8.39224509656606 0.05050466096398785 0 0 0
137 1 20.592437116207687 9.707003754423548 2.3160416841210925 0 0 0
4188 4 20.534285181486737 13.631769578235122 13.707466242466019 0 0 0
94 4 2.014428410193478 14.97397349310246 2.3087903343536693 0 0 0
96 3 1.0556726662778622 13.693167427955434 0.06403883751702387 0 0 0
99 4 2.9448172058298745 12.37981324394836 2.2637463577181296 0 0 0
100 3 4.823600146922496 15.009233238016702 2.272078882380002 0 0 0
102 1 3.9287333169579126 13.629999218801972 0.001991291124374682 0 0 0
105 4 5.7459277248440905 12.362913117794085 2.2580440640577013 0 0 0
108 4 6.691746199287258 13.66347343556835 0.06187232335961193 0 0 0
106 4 7.606581190892826 14.972070382724693 2.27411610084662 0 0 0
111 2 8.531190273379615 12.360042333483177 2.2736707965157366 0 0 0
112 4 10.384330271671777 14.95921358797799 2.2796095781940218 0 0 0
114 1 9.42240388787382 13.656034361350276 0.04013669116195845 0 0 0
117 2 11.271529532678851 12.358042707479045 2.2782641460154256 0 0 0
118 2 13.163308954728773 14.947033929930646 2.2987381235303834 0 0 0
120 1 12.190744893045403 13.654712630264925 0.056391049729982615 0 0 0
123 2 14.032129940583824 12.36564660673275 2.3030378157981795 0 0 0
124 2 15.871424202864306 14.963185697394021 2.3045449796575586 0 0 0
126 1 14.967397383508372 13.631691815537879 0.055303817903276764 0 0 0
129 4 16.78300317397559 12.347711836586045 2.292768110992207 0 0 0
130 3 18.64012910538509 14.970845190961208 2.2674683639044892 0 0 0
132 4 17.690335724342283 13.608135297648877 0.04728816596158697 0 0 0
135 3 19.62132173965164 12.337711312591138 2.289598955754373 0 0 0
138 1 20.476325650293624 13.679536536543294 -0.02421743319031051 0 0 0
4162 3 10.367011925420051 14.927156370733403 15.963239596774596 0 0 0
1352 4 2.07907533356846 3.1893825125128186 4.571737897048816 0 0 0
1357 4 2.971358616588103 0.6159532478049509 4.586341270594089 0 0 0
1358 4 4.820028222926192 3.2028658387764737 4.591892219300594 0 0 0
4187 1 20.556337026698724 9.745820794176806 16.005927264042796 0 0 0
1364 4 7.592440461545022 3.1890227009314014 4.604555123130667 0 0 0
4161 2 8.486162122366933 12.32676929462956 15.95893440249865 0 0 0
1370 4 10.380325341588895 3.2094522313391005 4.596439704750311 0 0 0
1375 2 11.279617614261142 0.610661488960235 4.602748691484233 0 0 0
1376 4 13.13732228872592 3.2155969994534264 4.596058150042191 0 0 0
1381 4 14.05251807002025 0.6181546800463457 4.580801549958709 0 0 0
1382 4 15.902754264648502 3.209797926936995 4.6017281284692055 0 0 0
1387 3 16.840383457618533 0.6248460777686078 4.577608432565071 0 0 0
1388 2 18.66750978794916 3.2065789185251896 4.607036382943428 0 0 0
4156 1 7.536897404383286 14.948277175025371 15.999427835355563 0 0 0
1356 3 1.149959497000711 5.79557325314407 4.548809120440563 0 0 0
1362 4 3.9089594930165976 5.777937004460134 4.57259574122642 0 0 0
1368 2 6.660578228557308 5.784147439460074 4.5959018225135155 0 0 0
1374 2 9.452094976614687 5.7971845429674715 4.596594895275339 0 0 0
1380 4 12.20046810804932 5.801185863405057 4.575809270842706 0 0 0
1386 4 14.963968260531578 5.811632830522156 4.602561039845937 0 0 0
1392 1 17.739996252498084 5.827095061142532 4.603107283600041 0 0 0
1398 1 20.55230559302882 5.840825475156525 4.607125248905647 0 0 0
4185 2 19.608941539343807 12.34410569915994 16.009774610810748 0 0 0
1442 4 2.0070700542989273 11.074011512281718 4.578075237597767 0 0 0
1447 1 2.969206126562478 8.43235367520126 4.566039277978242 0 0 0
1448 1 4.796126700195087 11.040109394571033 4.5403093187686085 0 0 0
1453 1 5.743650796597282 8.411412821965925 4.569335554506669 0 0 0
1454 4 7.5803357274118754 11.0584731709016 4.543533066335693 0 0 0
1459 1 8.53861554854525 8.436423169673708 4.569696550266161 0 0 0
1460 3 10.36433749497464 11.010960170853494 4.551829037484937 0 0 0
1465 4 11.308513818957907 8.400860225982633 4.590506049290182 0 0 0
1466 2 13.147209999723207 11.050074226279783 4.5686719929144095 0 0 0
1471 4 14.061862139899597 8.435616723386985 4.588132042703944 0 0 0
1472 4 15.889463224625555 11.040901615513635 4.5767607017419385 0 0 0
1477 2 16.813775089350102 8.44004737853748 4.600239781163441 0 0 0
1478 2 18.67380013775391 11.042911604156433 4.602154691926448 0 0 0
1483 1 19.565807678665646 8.434623551655381 4.59486558751601 0 0 0
1446 2 1.0921478500163746 13.659321274394394 4.576817653840754 0 0 0
1452 1 3.8648820776161883 13.663842962525672 4.567199439974838 0 0 0
1458 4 6.672222742742041 13.681511425229775 4.541507774466786 0 0 0
1464 3 9.436944652960557 13.694528079428324 4.5420461249523365 0 0 0
1470 2 12.234958171040331 13.650513516507196 4.558525493810126 0 0 0
1476 4 14.974422030460174 13.63976387411467 4.54705470086668 0 0 0
1482 4 17.740828502809336 13.641310419073537 4.560815180461485 0 0 0
1488 4 20.526584653486363 13.640601867931103 4.589142089427686 0 0 0
1355 3 1.147508584686176 1.8866594009630497 6.871091679898846 0 0 0
4182 2 17.746728623002248 13.658691714683437 13.723117275595731 0 0 0
2702 4 2.0602396049606333 3.209277078025904 9.183676715614853 0 0 0
2707 4 2.991081070752515 0.6200514261945296 9.148804419863232 0 0 0
1361 2 3.9132380939421094 1.8893149401233513 6.86744111150522 0 0 0
1367 2 6.657762612108226 1.9049097658417136 6.877877514536621 0 0 0
2708 4 4.807445864658865 3.1824668995796523 9.14436777828501 0 0 0
4183 1 19.581760196624437 8.40154420337266 13.67538660212846 0 0 0
1373 4 9.426572138317638 1.8957562911505108 6.842892682804317 0 0 0
2714 1 7.566224739000388 3.200498989236998 9.151387814826533 0 0 0
4158 4 6.6309784600545445 13.626369788247912 13.714753007962118 0 0 0
2720 3 10.375598722794841 3.1932348063543885 9.140505918211788 0 0 0
1379 2 12.200868754260123 1.915229794383383 6.845303067443133 0 0 0
4155 2 5.731199398760842 12.338495017401405 15.966910202584744 0 0 0
2726 2 13.142106989289314 3.1964706712654265 9.126734061394158 0 0 0
1385 4 14.977631392844653 1.932374835361828 6.8449474277527615 0 0 0
2731 1 14.076173625276478 0.6084218873729712 9.17884822362681 0 0 0
2732 1 15.902892407944975 3.1924110843415217 9.133307857924201 0 0 0
4152 2 3.8761992020749267 13.641835769933898 13.722622205094108 0 0 0
1391 4 17.758848522065488 1.9212666825190774 6.889424669324785 0 0 0
1397 1 20.522111775307298 1.9008521387660564 6.907383367004263 0 0 0
2738 2 18.681300766904805 3.21359854588862 9.145018406425589 0 0 0
4150 2 4.782134460872081 14.971553741866197 15.993694605425997 0 0 0
4180 1 18.65837841324337 14.932926594927444 16.01411137618039 0 0 0
1354 1 2.049244477513365 7.12513349645546 6.902920892741984 0 0 0
1359 4 2.997938587655402 4.480247636789244 6.864511925490457 0 0 0
2706 4 1.1081826303071574 5.81680343517692 9.195709352344156 0 0 0
1360 4 4.81256575758116 7.096545854728317 6.866078263685851 0 0 0
1365 2 5.7455584620277875 4.4862172878099 6.8497645159768465 0 0 0
2712 3 3.8782525922026143 5.789785996587631 9.144369671046242 0 0 0
2718 2 6.653900782926271 5.799792309415078 9.150620304907532 0 0 0
1366 1 7.593663127810839 7.092900478692539 6.876382988977965 0 0 0
1371 2 8.519233878585888 4.489955034955096 6.8433348252170125 0 0 0
1372 2 10.368260197442858 7.119533271593068 6.843907149661364 0 0 0
2724 1 9.397167183935922 5.834887340672882 9.141142244419656 0 0 0
1377 2 11.293234377327458 4.499766765179928 6.836469283761198 0 0 0
1378 1 13.13623785281237 7.141720699986635 6.850477531410603 0 0 0
2730 1 12.212310386656583 5.7996435745349855 9.149005927152997 0 0 0
1383 2 14.05207339009555 4.514394596250975 6.845844749502574 0 0 0
1384 4 15.908325223777117 7.139489339114455 6.866477909893143 0 0 0
1389 4 16.822770035591954 4.530987134650397 6.880130387140475 0 0 0
2736 4 14.993622263042269 5.831714352592172 9.105661174227949 0 0 0
1390 4 18.66784226662147 7.128740606871294 6.902143598865687 0 0 0
1395 4 19.599986056489335 4.523395683494667 6.905736383204304 0 0 0
2742 2 17.767088689587872 5.8366426757929535 9.137925686367234 0 0 0
2748 2 20.520996905903935 5.830397642346286 9.138408300459362 0 0 0
1445 2 1.1160742054860218 9.768361805533265 6.882951855080222 0 0 0
4144 4 2.0502183685024957 14.974750381168144 16.01676692502572 0 0 0
2792 4 2.0251003639012954 11.045533244864007 9.141052340846622 0 0 0
2797 4 2.9611125704300982 8.449682943993485 9.166947712018722 0 0 0
1451 2 3.8645808341634194 9.738480922697184 6.876051748574529 0 0 0
1457 4 6.660800845805535 9.725943833329934 6.86899356769867 0 0 0
2798 4 4.799360885595176 11.01367028022252 9.158557715405552 0 0 0
2803 1 5.7467409650642125 8.414577730417431 9.152517168084339 0 0 0
1463 2 9.452596194370457 9.72114735179219 6.867864757100686 0 0 0
2804 2 7.581797182816229 11.021679520620953 9.160233266001207 0 0 0
2809 2 8.509432778779983 8.451140862979328 9.143772524157011 0 0 0
2810 4 10.352487578878467 11.020656230580073 9.145996883078864 0 0 0
1469 2 12.210317772507507 9.73699962734302 6.85137899273498 0 0 0
2815 4 11.281707339352304 8.437779052147349 9.136088593813193 0 0 0
2816 1 13.133452468013504 11.032387126816497 9.133405081755045 0 0 0
1475 4 14.990892814246076 9.7450379721577 6.845308542356953 0 0 0
2821 2 14.066894743603624 8.43952003381358 9.126971776633047 0 0 0
2822 2 15.9007172045196 11.029115516049034 9.115907883692579 0 0 0
2827 2 16.82728619230784 8.436786117326246 9.118433619929013 0 0 0
1481 2 17.735086601596485 9.734113082768799 6.850812758903737 0 0 0
1487 4 20.52859170079985 9.735254551854755 6.860062174961178 0 0 0
2828 1 18.669565171200052 11.035493823679767 9.128144526779806 0 0 0
2833 4 19.59786167440221 8.423362563626675 9.133804740878235 0 0 0
4179 4 16.830665965576877 12.356208023767907 15.993544117720885 0 0 0
1444 1 2.0099442430607204 14.963811720959669 6.846311622888725 0 0 0
1449 4 2.9227817662831224 12.320951543572935 6.862365988087474 0 0 0
2796 2 1.0999409429402796 13.658719954950957 9.132102200817771 0 0 0
1450 1 4.836086817431989 14.999476208355578 6.848089031473352 0 0 0
1455 3 5.708361930033056 12.315711950534398 6.839496333407288 0 0 0
2802 1 3.842227966690517 13.635144323451463 9.135320178191261 0 0 0
2808 3 6.648347567059602 13.654325784496491 9.142446908326937 0 0 0
1456 2 7.596840663246898 14.980522676780232 6.822848452404904 0 0 0
1461 1 8.491112826804308 12.332540629353325 6.859713875650309 0 0 0
1462 2 10.374339135893635 14.969057404154025 6.861546639834408 0 0 0
2814 1 9.479006818513652 13.642934517139905 9.158358343661455 0 0 0
1467 3 11.31962301700473 12.369627701926866 6.868564434200986 0 0 0
1468 2 13.128647202484743 14.958278424369565 6.842789868351969 0 0 0
2820 4 12.22214925015295 13.675976233218597 9.169939365020674 0 0 0
1473 4 14.075977007765207 12.350747128736197 6.823810010863158 0 0 0
1474 3 15.912318440521728 14.953428684967 6.79897508857431 0 0 0
1479 4 16.82839754903773 12.32527587858038 6.817563499628992 0 0 0
2826 1 14.96724231062412 13.651515697958976 9.158207351170208 0 0 0
1480 4 18.69647783088844 14.946082136310983 6.8046117614760195 0 0 0
1485 2 19.6027514522061 12.336586395006218 6.81582505389449 0 0 0
2832 1 17.754875168721124 13.667786691178973 9.119437474462496 0 0 0
2838 3 20.551785974794942 13.650582892157757 9.112956727479574 0 0 0
2705 4 1.1290827454957915 1.9132844564530525 11.455442498835737 0 0 0
2711 4 3.9035784655496477 1.900481387319334 11.430594976312962 0 0 0
2717 2 6.64929054367534 1.8897076973525526 11.429803301975777 0 0 0
2723 4 9.421988853625813 1.8898588236489515 11.429370251237527 0 0 0
2729 4 12.19984139741887 1.8910744159478794 11.442616568147558 0 0 0
2735 4 14.985470541635346 1.8757684749414687 11.463878459837273 0 0 0
2741 4 17.75164668064752 1.8761521906783107 11.43379848668486 0 0 0
2747 3 20.513933751334918 1.859010655709611 11.420124440127093 0 0 0
4176 4 14.972108618846155 13.672505915139856 13.703166027023647 0 0 0
2704 4 2.0411934034307215 7.111977244418561 11.436267684910716 0 0 0
2709 2 2.9669477892492053 4.4866653911911785 11.435646025273833 0 0 0
2710 1 4.818655296960006 7.1404855572264685 11.45281010059655 0 0 0
2715 4 5.73290135258462 4.4903497974769975 11.438823395281952 0 0 0
2716 4 7.583644096969056 7.121330868414414 11.449277468063006 0 0 0
2721 4 8.493407667987467 4.509986250568189 11.454663007705856 0 0 0
2722 1 10.37076145269195 7.114565114307847 11.459419816820768 0 0 0
2727 2 11.28538392767819 4.50646291278295 11.44597692514041 0 0 0
2728 4 13.135124970487956 7.136839558186862 11.435663372254597 0 0 0
2733 1 14.026927139239193 4.489182177418538 11.409837027796351 0 0 0
2734 3 15.909526569042686 7.1335658840671154 11.399257921237385 0 0 0
2739 1 16.821819531188982 4.490717289290342 11.44179875599328 0 0 0
2740 2 18.676075607718264 7.134826818981721 11.39731898557069 0 0 0
2745 3 19.607713369186683 4.532413674454789 11.436237634438154 0 0 0
2795 1 1.1397585750800057 9.747776096568767 11.414544321236878 0 0 0
2801 2 3.8793060377118063 9.759091304693648 11.447060643662033 0 0 0
2807 4 6.635003642541757 9.743327099224384 11.443899445819854 0 0 0
2813 1 9.414550138656566 9.741804554434905 11.429676481144842 0 0 0
2819 4 12.192954068819736 9.739540457367092 11.443977092032084 0 0 0
2825 3 14.952923756622 9.761618869768332 11.427620969183979 0 0 0
2831 2 17.747958433919774 9.717514144520845 11.406318256970508 0 0 0
2837 4 20.528203673835307 9.742438688252772 11.414483933569393 0 0 0
4143 3 0.2128342126833487 12.35044969946159 16.01604436368797 0 0 0
2794 4 1.9997593239241465 14.95976687297775 11.415825842378444 0 0 0
2799 2 2.9658054960022113 12.342073001175775 11.426105816678902 0 0 0
2800 3 4.776923451782364 14.952984742793596 11.457268407896656 0 0 0
2805 4 5.720660090866165 12.312867078069104 11.45717248630767 0 0 0
2806 1 7.603270736416781 14.938068643462888 11.442704585097104 0 0 0
2811 2 8.504381060825365 12.325865641985374 11.434646969910789 0 0 0
2812 4 10.396808605513117 14.962826415104887 11.426469583692027 0 0 0
2817 4 11.274426662037653 12.35176396750237 11.450067223947523 0 0 0
2818 2 13.13012878057737 14.961588611182473 11.444644205902456 0 0 0
2823 4 14.027820175837826 12.36282495416895 11.44486984237489 0 0 0
2824 2 15.873719268406841 14.965760267704685 11.455557013854285 0 0 0
2829 1 16.81585271004819 12.358794408840806 11.445062277678606 0 0 0
2830 4 18.670315269749302 14.94517766454577 11.44642615880371 0 0 0
2835 2 19.62015646015842 12.336083091700575 11.444409991967836 0 0 0
4181 1 17.73723085224263 9.732913870881784 16.0076580097981 0 0 0
4052 2 2.0430420503904676 3.204164077900323 13.700048684278588 0 0 0
4055 4 1.1412619736345624 1.894889599699307 15.970316168201165 0 0 0
4057 4 2.961159743303128 0.624284092612705 13.714628144172675 0 0 0
4058 4 4.807342712641011 3.1740179586003583 13.698265595047854 0 0 0
4061 4 3.895368486769545 1.887290111209201 15.959105492642877 0 0 0
4178 1 18.68598756778104 11.073600936401887 13.694919413257084 0 0 0
4067 4 6.657377123766424 1.8757295553572662 15.98941558069079 0 0 0
4064 2 7.570430149775564 3.191451594633621 13.69613440443012 0 0 0
4149 4 2.9746633166417147 12.357425850384734 15.98309406427692 0 0 0
4070 1 10.333396115143174 3.2107397049466737 13.701443083063639 0 0 0
4073 4 9.427766250041016 1.870817148777717 16.018269090269644 0 0 0
4177 2 16.816830038767073 8.43645543084397 13.682886869193485 0 0 0
4076 4 13.127091501645042 3.1949290010229925 13.723655633038428 0 0 0
4079 4 12.202781941432642 1.8780717379168341 15.99521764702171 0 0 0
4175 1 14.959506805250998 9.71619388884808 16.003106281686893 0 0 0
4082 2 15.895866638015933 3.1702372166109978 13.727706745834489 0 0 0
4085 4 14.971333509284909 1.8714277662431162 16.001775643957217 0 0 0
4172 2 15.891001212418207 11.045536013600888 13.703959231606712 0 0 0
4088 4 18.668355830403904 3.191850190010564 13.719227987422103 0 0 0
4091 1 17.773831577374736 1.8900797331630306 15.98615287860381 0 0 0
4146 1 1.122377503366675 13.671318945801547 13.690811617445885 0 0 0
4097 4 20.530491507728122 1.891420214059464 16.01755076372885 0 0 0
4174 4 15.888983876645597 14.950140234823783 15.982694376319055 0 0 0
4054 2 2.0362928850843067 7.138210658785867 15.997905499148665 0 0 0
4056 1 1.12001894831814 5.807333744879976 13.691712480514166 0 0 0
4059 4 2.9656435441758466 4.516356450579805 15.998604752542981 0 0 0
4060 4 4.813211992577089 7.1366941547943545 16.0132276687582 0 0 0
4062 3 3.914167322223743 5.806349606948456 13.73216645695801 0 0 0
4065 1 5.728026421045801 4.513899946771157 15.986797306424402 0 0 0
4068 4 6.671937784514933 5.815013966419555 13.705280380574518 0 0 0
4066 4 7.564928564991648 7.136737044217205 16.002961789953922 0 0 0
4071 1 8.4885464929697 4.5051615783478445 15.998240297257848 0 0 0
4072 1 10.349150256042673 7.119799117244556 15.992504936454646 0 0 0
4074 2 9.420289727909191 5.826468918405352 13.706934419066789 0 0 0
4077 1 11.286498020619456 4.500761208139323 16.004507959016514 0 0 0
4078 4 13.117267626031545 7.122424807836422 16.002679982488363 0 0 0
4080 2 12.194283723149528 5.820524038325383 13.71634796162767 0 0 0
4083 4 14.042202178497716 4.493760737050307 16.018703667421267 0 0 0
4084 1 15.891309419568985 7.116272004807923 16.01762971942733 0 0 0
4086 3 14.954907970469687 5.79377286843754 13.736105552772802 0 0 0
4089 1 16.826684630397637 4.496924477451305 15.999104096385274 0 0 0
4090 1 18.691910803112755 7.087223105815086 15.99919481960734 0 0 0
4092 4 17.762770227626863 5.814368110086298 13.68939151833201 0 0 0
4095 4 19.619358940983894 4.496044879361998 16.01490838008605 0 0 0
4098 2 20.54628893997525 5.809103325749053 13.723381150810496 0 0 0
4141 3 0.21453167528301728 8.431260813459868 13.739623361582854 0 0 0
4142 4 2.0629301892199834 11.040303387929992 13.719866553988544 0 0 0
4145 2 1.1322618007611354 9.728327857545601 16.03326502178898 0 0 0
4147 2 2.9917267902492517 8.439087115689171 13.727711382308552 0 0 0
4148 2 4.818072743649184 11.043832619508203 13.709372662258751 0 0 0
4151 1 3.8756999038597493 9.741561480542998 15.97952163810415 0 0 0
4153 2 5.734424563313268 8.440645460588483 13.720368577875782 0 0 0
4157 4 6.6486315448319875 9.728258564487236 15.987521897476396 0 0 0
4154 4 7.569482539968891 11.04178181826103 13.703275534488409 0 0 0
4159 2 8.489760581771241 8.429913927521806 13.714025226277984 0 0 0
4160 4 10.36415192045767 11.039646848696526 13.689809212491577 0 0 0
4163 1 9.417650571812137 9.742685145649114 15.965411449935777 0 0 0
4165 2 11.286014819555833 8.429643325215606 13.7110585974557 0 0 0
4166 4 13.12074549701416 11.04760697604709 13.698659125061292 0 0 0
4169 2 12.205524559187019 9.725376060711163 15.959595150064052 0 0 0
4171 4 14.047146915797569 8.434007203532053 13.696552709197517 0 0 0
1393 4 19.59741439231097 0.6067411357547456 4.599939672060901 0 0 0
5405 1 1.123628846652798 1.9131858544050742 20.55089323501379 0 0 0
9588 1 20.49564201397873 13.632155808913001 32.02172904270226 0 0 0
9568 4 13.114666571004411 14.964099320385918 34.17044680170244 0 0 0
5402 2 2.0643186432724314 3.2173609071763 18.261066143447664 0 0 0
5411 3 3.9135374527305276 1.937134447117635 20.607025571680314 0 0 0
5417 2 6.667650889264127 1.9070920629848687 20.542153367292542 0 0 0
9567 4 11.302050608660116 12.380487846452624 34.16503753868304 0 0 0
5408 1 4.818112649749312 3.218092156309443 18.263368330276215 0 0 0
5423 4 9.403662787574543 1.91108721850903 20.52875400704034 0 0 0
5420 2 10.335497007556732 3.189046428836099 18.279183970149134 0 0 0
9564 4 9.442452967635786 13.664950916799294 31.963390580593273 0 0 0
5414 4 7.5978728080012194 3.193205876467614 18.295517984560806 0 0 0
5429 4 12.20981366628854 1.8988630125510286 20.54688992420303 0 0 0
5426 1 13.113878589149717 3.191551766149819 18.267859169330098 0 0 0
9572 1 15.902518748554277 11.02920629590902 31.97497253642237 0 0 0
5435 4 14.988801757309622 1.8933813873828471 20.54536573083997 0 0 0
9562 2 10.358309270440838 14.970318263561046 34.186539522323905 0 0 0
5432 4 15.91062739708271 3.211566425870628 18.29082699731475 0 0 0
9561 2 8.528818632157149 12.36329282279432 34.22004015694696 0 0 0
5441 2 17.77205456549943 1.8980083859663086 20.54434022277272 0 0 0
5447 4 20.535913669868055 1.8876965036623603 20.559319344548204 0 0 0
9556 4 7.6182609013435325 14.984797700715157 34.17741411323852 0 0 0
5438 2 18.69109256302262 3.193584116958232 18.308824591317446 0 0 0
9581 2 17.75164623655112 9.668904912659315 34.22033267805507 0 0 0
5404 1 2.0448308491323592 7.1345613104544245 20.54645334572876 0 0 0
5409 2 2.9841410397174197 4.5377621415699165 20.568240122119533 0 0 0
5406 4 1.1320410956026137 5.831015294000736 18.257660465764953 0 0 0
5410 2 4.812750144123563 7.123174857556742 20.54794039019704 0 0 0
5415 2 5.745472634589122 4.528699797385359 20.562933254251796 0 0 0
5418 2 6.65086387271795 5.830130052126515 18.2973839779888 0 0 0
5412 4 3.8946629883422195 5.841822262461474 18.29014205293093 0 0 0
5416 4 7.572336577753014 7.1249630936501855 20.544509391700817 0 0 0
5421 2 8.469451837053239 4.518515748386234 20.56009270117242 0 0 0
5422 2 10.334726395995217 7.118877723703339 20.56312594715428 0 0 0
5424 4 9.406893219183486 5.818765086423449 18.31567341560009 0 0 0
5427 3 11.247867970817872 4.5258755667157144 20.542689573828575 0 0 0
5428 2 13.121235801406586 7.116583565990381 20.555329306919294 0 0 0
5430 4 12.202070269031484 5.8283137300118 18.286001336365455 0 0 0
5433 3 14.084064902743735 4.519650476391227 20.573268424311447 0 0 0
5434 2 15.894856225018296 7.120994481501494 20.559943627359175 0 0 0
5439 4 16.838061498256096 4.502431674524608 20.552267691207366 0 0 0
5436 2 14.980433062877127 5.823338504047656 18.303441619130172 0 0 0
5440 2 18.669726141884144 7.093591954115075 20.559129107499956 0 0 0
5445 2 19.60578819102634 4.484371329595185 20.531135449512288 0 0 0
5448 4 20.543748260492634 5.779472025139807 18.271416623140848 0 0 0
5442 4 17.75508867134273 5.794816162641123 18.31636003006637 0 0 0
5495 4 1.1304181082695814 9.747716020441898 20.56750362218473 0 0 0
5497 4 2.9530453934817547 8.424419047833508 18.282608391235275 0 0 0
5492 2 2.040162215407335 11.046197078497523 18.289919323858022 0 0 0
9578 3 18.68971466709286 10.984867818183522 31.998680136957457 0 0 0
5501 2 3.8945683226289574 9.734918490754048 20.562694970680027 0 0 0
5507 2 6.642668818398487 9.721714843717963 20.5525934350159 0 0 0
5503 4 5.739801812842192 8.408128435244 18.2804156714872 0 0 0
5498 1 4.809338260636631 11.027172121434049 18.283350854953262 0 0 0
5513 2 9.38225785410272 9.6851425171904 20.559426765808425 0 0 0
5510 1 10.317574357035948 11.020097647609258 18.273813754100146 0 0 0
5509 2 8.484553708769418 8.418653769351987 18.289101590851715 0 0 0
5504 2 7.564420672487998 11.010549140186098 18.267122092007156 0 0 0
5519 3 12.20949044232928 9.68514047136874 20.57367290515511 0 0 0
5516 1 13.134036593435727 11.007962700480308 18.26028422730879 0 0 0
5515 4 11.268139745535477 8.395670285085686 18.271480318269326 0 0 0
5525 4 14.997636011097073 9.704962289203579 20.56678770690409 0 0 0
5527 4 16.80064445329504 8.421446151426775 18.335214744667955 0 0 0
5522 2 15.915260976465259 11.03916775286293 18.297509024625644 0 0 0
5521 2 14.042383142402224 8.393228025175857 18.30492118454107 0 0 0
5531 4 17.754697616775974 9.727779485619333 20.56440964831611 0 0 0
5537 1 20.54190741475432 9.778388057809824 20.569654522171607 0 0 0
5533 3 19.591556956896305 8.412704011746534 18.319358443513792 0 0 0
5528 2 18.65969455866989 11.053473908506868 18.29257274012803 0 0 0
9577 4 16.836859840246397 8.402925765269828 31.96495767987074 0 0 0
5494 2 2.055510506105812 14.960525177913127 20.560929169129356 0 0 0
5499 2 2.940698467836793 12.336117829769087 20.575143566084765 0 0 0
5496 2 1.1280772027147887 13.664129099827553 18.300925467152975 0 0 0
5500 2 4.779592309944512 14.982453917847753 20.56894731477695 0 0 0
5505 4 5.695854127827142 12.345957244927384 20.59316616460274 0 0 0
5508 1 6.642904748396149 13.635252817622995 18.270288696013324 0 0 0
5502 1 3.8565443560717707 13.672778683400027 18.275706123485797 0 0 0
5506 1 7.552769226120338 14.979888581924696 20.575376093644316 0 0 0
5511 1 8.464399589342406 12.31165058957237 20.547730249605017 0 0 0
5512 4 10.337605165457356 14.977376632948078 20.58368449520028 0 0 0
5514 4 9.4118149009206 13.660254497172044 18.257070957436216 0 0 0
5517 1 11.259653592236196 12.351436684386927 20.568642033395378 0 0 0
5518 1 13.130776166977254 14.979381527396004 20.56228697961377 0 0 0
5520 1 12.209966498910656 13.646975014482354 18.251943945754586 0 0 0
5523 3 14.074228375647138 12.332282059171423 20.598199023332725 0 0 0
5524 4 15.925302152063816 14.965283471248238 20.565262914122613 0 0 0
5529 1 16.846035992981847 12.338466056814537 20.56463270749079 0 0 0
5526 4 15.012992485775527 13.66037274256874 18.269965475005247 0 0 0
5530 4 18.68562590189197 14.9804414775237 20.56075443939504 0 0 0
5535 4 19.612914606866116 12.356023832076676 20.584259989270546 0 0 0
5538 1 20.531131607386424 13.636444911628736 18.312796089116777 0 0 0
5532 2 17.762414407233535 13.639057242238476 18.28327030615571 0 0 0
9558 1 6.685209055129808 13.647752737682895 31.99649717634681 0 0 0
6752 2 2.0543864705327644 3.222297972513419 22.874920748037194 0 0 0
6757 4 2.955512410319908 0.6112539796346294 22.87752445610947 0 0 0
6758 4 4.809434438418085 3.2412794605866724 22.8602972209406 0 0 0