ESCALE ; pCOHP file generated by LOBSTER. Energy is shifted such that the Fermi level lies at 0 eV.
       513          1        301  -2.68243e-01   1.47819e+01   9.76520e+00 
Average
No.1:Ta4->Ta1(2.8107857710420485)
No.2:Ta19->Ta1(2.8188076852627302)
No.3:Ta23->Ta1(2.8044671450628571)
No.4:Mo33->Ta1(2.8030033476594203)
No.5:Mo36->Ta1(2.8193441185339783)
No.6:Nb65->Ta1(2.7857364470162627)
No.7:W112->Ta1(2.8488788103503326)
No.8:W121->Ta1(2.8249308492155194)
No.9:Ta3->Ta2(2.8146166174836806)
No.10:Ta4->Ta2(2.8917806216861059)
No.11:Ta23->Ta2(2.8062716168662427)
No.12:Ta25->Ta2(2.8771168330436536)
No.13:Mo33->Ta2(2.8018807583296592)
No.14:Mo54->Ta2(2.7664326590981196)
No.15:Nb70->Ta2(2.8678350821177494)
No.16:W112->Ta2(2.7999136686611181)
No.17:Mo50->Ta3(2.8093028746756525)
No.18:Mo58->Ta3(2.781124285844133)
No.19:Nb71->Ta3(2.8406094590898121)
No.20:Nb72->Ta3(2.8440654976898627)
No.21:Nb76->Ta3(2.7907747842197246)
No.22:W97->Ta3(2.841795279392199)
No.23:W119->Ta3(2.8317357195157538)
No.24:Nb69->Ta4(2.8490083962606856)
No.25:Nb72->Ta4(2.8248871993304014)
No.26:W98->Ta4(2.799751394466544)
No.27:W99->Ta4(2.7686409259766291)
No.28:W104->Ta4(2.7640844311224009)
No.29:W107->Ta4(2.7716508613434576)
No.30:Ta15->Ta5(2.8887962981871511)
No.31:Ta32->Ta5(2.8775953433608965)
No.32:Mo44->Ta5(2.7880085455841912)
No.33:Mo63->Ta5(2.7789501063493449)
No.34:Nb77->Ta5(2.8695273132454333)
No.35:Nb96->Ta5(2.8247282310105981)
No.36:W106->Ta5(2.8206172018385867)
No.37:W126->Ta5(2.7767698258774929)
No.38:Ta12->Ta6(2.8503590967276118)
No.39:Ta20->Ta6(2.8382356626119805)
No.40:Ta28->Ta6(2.8572937313436668)
No.41:Mo43->Ta6(2.8273010860714516)
No.42:Mo64->Ta6(2.7468339322257966)
No.43:Nb81->Ta6(2.8200232139655501)
No.44:Nb89->Ta6(2.8155910917008016)
No.45:W128->Ta6(2.7866298325322303)
No.46:Ta15->Ta7(2.8104300909508084)
No.47:Ta26->Ta7(2.8109918408082826)
No.48:Ta32->Ta7(2.8125076987435262)
No.49:Mo44->Ta7(2.8078246049690945)
No.50:Mo48->Ta7(2.7976109464946615)
No.51:W101->Ta7(2.807822144869121)
No.52:W126->Ta7(2.8400196317524284)
No.53:W127->Ta7(2.8541050323321526)
No.54:Ta11->Ta8(2.8839639174388392)
No.55:Ta16->Ta8(2.7888224921989564)
No.56:Mo41->Ta8(2.7883288159448005)
No.57:Mo45->Ta8(2.756190901465311)
No.58:Mo52->Ta8(2.7775345869637924)
No.59:Nb67->Ta8(2.8213689724379312)
No.60:Nb71->Ta8(2.7844319460570359)
No.61:Nb74->Ta8(2.8338348699753326)
No.62:Ta18->Ta9(2.8722617092642193)
No.63:Ta30->Ta9(2.8464528103398603)
No.64:Mo43->Ta9(2.8058918666383921)
No.65:Mo64->Ta9(2.8055977873812341)
No.66:Nb74->Ta9(2.8652070337843929)
No.67:Nb81->Ta9(2.8312615362333657)
No.68:Nb89->Ta9(2.8222271632516338)
No.69:Nb91->Ta9(2.8426783524470132)
No.70:Ta11->Ta10(2.8639939139955528)
No.71:Ta12->Ta10(2.8700740631912391)
No.72:Mo45->Ta10(2.7972511012798558)
No.73:Mo52->Ta10(2.7837298603732532)
No.74:Nb71->Ta10(2.8265194113859216)
No.75:Nb72->Ta10(2.8508364938159962)
No.76:Nb82->Ta10(2.7849500157934863)
No.77:W107->Ta10(2.7980419118779127)
No.78:Mo39->Ta11(2.8333626464629837)
No.79:Mo40->Ta11(2.8295559973271729)
No.80:Mo46->Ta11(2.7592422673145265)
No.81:W108->Ta11(2.7993022542826664)
No.82:W114->Ta11(2.8137861568503526)
No.83:W115->Ta11(2.7977494336128625)
No.84:Mo37->Ta12(2.8364713541399151)
No.85:Mo40->Ta12(2.8151174536845498)
No.86:Mo49->Ta12(2.7944414944436029)
No.87:W105->Ta12(2.8635190455143005)
No.88:W108->Ta12(2.7789290636194397)
No.89:W115->Ta12(2.8368940778533958)
No.90:Ta19->Ta13(2.8000992329671748)
No.91:Ta31->Ta13(2.837165206880464)
No.92:Nb65->Ta13(2.827811055450312)
No.93:Nb66->Ta13(2.805327117352749)
No.94:Nb75->Ta13(2.8242568114509554)
No.95:Nb77->Ta13(2.8331658222098199)
No.96:Nb96->Ta13(2.7874875738015721)
No.97:W116->Ta13(2.81311130763536)
No.98:Mo48->Ta14(2.7926536985865562)
No.99:Mo55->Ta14(2.7580062425977112)
No.100:Mo56->Ta14(2.7866117242182318)
No.101:Nb75->Ta14(2.8163757441386772)
No.102:Nb78->Ta14(2.7922198443387902)
No.103:W101->Ta14(2.7774714882425187)
No.104:W103->Ta14(2.8529578101015542)
No.105:W109->Ta14(2.7926239534009967)
No.106:Mo50->Ta15(2.7963558923863561)
No.107:Mo58->Ta15(2.7925172839850587)
No.108:Nb76->Ta15(2.848899667730509)
No.109:Nb79->Ta15(2.8322588997344629)
No.110:W113->Ta15(2.8087811570579366)
No.111:W119->Ta15(2.781874372453768)
No.112:Mo42->Ta16(2.8410962043944918)
No.113:Mo51->Ta16(2.8042456468902413)
No.114:Mo60->Ta16(2.7894763860159126)
No.115:Nb78->Ta16(2.8118701014052765)
No.116:Nb80->Ta16(2.8360933204341099)
No.117:Nb85->Ta16(2.8241473359017597)
No.118:W114->Ta16(2.8298969269462289)
No.119:Mo45->Ta17(2.8320698942347695)
No.120:Mo52->Ta17(2.8205128341113781)
No.121:Mo61->Ta17(2.786609328312823)
No.122:Nb79->Ta17(2.7915915809301723)
No.123:Nb82->Ta17(2.8289338892651652)
No.124:W107->Ta17(2.7927504561451433)
No.125:W113->Ta17(2.8243071705693152)
No.126:W120->Ta17(2.7932819035938752)
No.127:Ta19->Ta18(2.858553918859557)
No.128:Ta24->Ta18(2.8287708293335587)
No.129:Mo46->Ta18(2.7642113170709446)
No.130:Nb80->Ta18(2.8258569540413565)
No.131:W114->Ta18(2.8120558391328982)
No.132:W116->Ta18(2.76275140082444)
No.133:W121->Ta18(2.8414570856798433)
No.134:Ta30->Ta19(2.8461368455245788)
No.135:Mo34->Ta19(2.8412001552801391)
No.136:Mo47->Ta19(2.8002126825959928)
No.137:Mo64->Ta19(2.7987234728387183)
No.138:Nb81->Ta19(2.8073089191890261)
No.139:Ta23->Ta20(2.8677499685157466)
No.140:Ta25->Ta20(2.8627614109194179)
No.141:Mo49->Ta20(2.849699625749182)
No.142:Mo54->Ta20(2.7832561900116537)
No.143:W108->Ta20(2.7486924259496881)
No.144:W112->Ta20(2.8471463892629618)
No.145:W115->Ta20(2.8213184391565274)
No.146:Mo51->Ta21(2.8184083603354879)
No.147:Mo56->Ta21(2.8212387180398291)
No.148:Mo60->Ta21(2.8265819533301166)
No.149:Nb78->Ta21(2.8326120053498443)
No.150:Nb84->Ta21(2.8252282892583898)
No.151:Nb85->Ta21(2.8067568675418566)
No.152:Nb93->Ta21(2.79260366628719)
No.153:W122->Ta21(2.8429750403627105)
No.154:Ta23->Ta22(2.8127525596479677)
No.155:Ta26->Ta22(2.8360226942783524)
No.156:Mo49->Ta22(2.7988942180283485)
No.157:Nb80->Ta22(2.8018111337229574)
No.158:Nb83->Ta22(2.8617520342327634)
No.159:Nb85->Ta22(2.8168003449111358)
No.160:Nb94->Ta22(2.8549957898385561)
No.161:W121->Ta22(2.8405114337971344)
No.162:Nb69->Ta23(2.8278716406378224)
No.163:Nb81->Ta23(2.7936335627590276)
No.164:Nb88->Ta23(2.818941532741658)
No.165:W98->Ta23(2.8143580659109126)
No.166:Mo34->Ta24(2.7925015419916965)
No.167:Mo35->Ta24(2.8070293606033125)
No.168:Mo38->Ta24(2.7669253807630381)
No.169:Mo53->Ta24(2.8366482230310539)
No.170:Mo62->Ta24(2.8052186064637734)
No.171:Nb86->Ta24(2.8200140898842694)
No.172:W97->Ta24(2.762910405834877)
No.173:Mo38->Ta25(2.7884756658440124)
No.174:Mo53->Ta25(2.7880188921902849)
No.175:Mo62->Ta25(2.7705038617010636)
No.176:Nb69->Ta25(2.8641926090683603)
No.177:Nb88->Ta25(2.8374735891726073)
No.178:W97->Ta25(2.7615644963388117)
No.179:Nb69->Ta26(2.8304391421251025)
No.180:Nb73->Ta26(2.7975331995204566)
No.181:Nb88->Ta26(2.8505283575937068)
No.182:W98->Ta26(2.8569557720139178)
No.183:W123->Ta26(2.7968715413297178)
No.184:W125->Ta26(2.8147246986605028)
No.185:Ta31->Ta27(2.8730989225506147)
No.186:Mo60->Ta27(2.8159598220726201)
No.187:Mo63->Ta27(2.8362891246458193)
No.188:Nb85->Ta27(2.8347769526953241)
No.189:Nb93->Ta27(2.8159042423099634)
No.190:Nb94->Ta27(2.8591481243851229)
No.191:Nb96->Ta27(2.8078771025088147)
No.192:W122->Ta27(2.8312890175417063)
No.193:Mo37->Ta28(2.8088827093666593)
No.194:Mo40->Ta28(2.7552139667814122)
No.195:Mo55->Ta28(2.8005010444103258)
No.196:Mo59->Ta28(2.7723934590061061)
No.197:Nb90->Ta28(2.8713300260980921)
No.198:W108->Ta28(2.8191051505041349)
No.199:W124->Ta28(2.8036798392846971)
No.200:Ta32->Ta29(2.8684239664507558)
No.201:Mo60->Ta29(2.7773351512077737)
No.202:Mo63->Ta29(2.8300116958551986)
No.203:Nb87->Ta29(2.8082433578134309)
No.204:Nb93->Ta29(2.8211392549937644)
No.205:Nb96->Ta29(2.8247605332523755)
No.206:W124->Ta29(2.8352197562951318)
No.207:W126->Ta29(2.7916568482503137)
No.208:Ta31->Ta30(2.8782534536441791)
No.209:Mo46->Ta30(2.7686500578475393)
No.210:Nb93->Ta30(2.8286069960291815)
No.211:Nb96->Ta30(2.8187373048181232)
No.212:W116->Ta30(2.8398618337904176)
No.213:W122->Ta30(2.8464120511757649)
No.214:Mo47->Ta31(2.8201692559250633)
No.215:Mo64->Ta31(2.7673280633545501)
No.216:Nb73->Ta31(2.8172269282079445)
No.217:W102->Ta31(2.8686556466285889)
No.218:W123->Ta31(2.7713501552146194)
No.219:Mo50->Ta32(2.7786532968057069)
No.220:Nb76->Ta32(2.8246725822554715)
No.221:Nb95->Ta32(2.8546309486192509)
No.222:W125->Ta32(2.7477735363471152)
No.223:W128->Ta32(2.754039563964402)
No.224:Mo47->Mo33(2.744274684032761)
No.225:Mo50->Mo33(2.7631931120995157)
No.226:Nb72->Mo33(2.8006055591545995)
No.227:W99->Mo33(2.8278696892931134)
No.228:W117->Mo33(2.7593425453069504)
No.229:W119->Mo33(2.7727133845828824)
No.230:Mo36->Mo34(2.7980341959714692)
No.231:Nb65->Mo34(2.8305874889365561)
No.232:Nb66->Mo34(2.8158296795542515)
No.233:W100->Mo34(2.7798967527610583)
No.234:W116->Mo34(2.7860201390632136)
No.235:W121->Mo34(2.7247120248493775)
No.236:Mo36->Mo35(2.7731474774827398)
No.237:Mo63->Mo35(2.7663872857302421)
No.238:Nb94->Mo35(2.7932915946177164)
No.239:W100->Mo35(2.7281558468355067)
No.240:W103->Mo35(2.7559353023632278)
No.241:W106->Mo35(2.7403415632446273)
No.242:W121->Mo35(2.7674598060352658)
No.243:Mo41->Mo36(2.7500232012773083)
No.244:Nb67->Mo36(2.7768178684922837)
No.245:W98->Mo36(2.7346484684486221)
No.246:W99->Mo36(2.8196980776202056)
No.247:W104->Mo36(2.7782176564207197)
No.248:Mo43->Mo37(2.7809055563701506)
No.249:Nb72->Mo37(2.7415061174494681)
No.250:Nb89->Mo37(2.7768313215137761)
No.251:W99->Mo37(2.7773001706032954)
No.252:W117->Mo37(2.7524144165121376)
No.253:W119->Mo37(2.7624703249501152)
No.254:Mo44->Mo38(2.8058795187426573)
No.255:Mo63->Mo38(2.7314920218299279)
No.256:Nb70->Mo38(2.8070411768830188)
No.257:W100->Mo38(2.7669387984511746)
No.258:W106->Mo38(2.7615100307487479)
No.259:W126->Mo38(2.8123980809963482)
No.260:Mo58->Mo39(2.7746962134993498)
No.261:Nb67->Mo39(2.8147530485761987)
No.262:Nb71->Mo39(2.7656838071225276)
No.263:Nb74->Mo39(2.803612397400487)
No.264:Nb91->Mo39(2.7901990463130737)
No.265:Nb92->Mo39(2.8245881536235489)
No.266:W118->Mo39(2.7743933060274317)
No.267:Mo58->Mo40(2.7348790843840032)
No.268:Nb71->Mo40(2.80445141219236)
No.269:Nb72->Mo40(2.7636180549679294)
No.270:Nb92->Mo40(2.7614573999170053)
No.271:W119->Mo40(2.7805654387809051)
No.272:Mo42->Mo41(2.8141351508707295)
No.273:Mo51->Mo41(2.8117503648434834)
No.274:Nb78->Mo41(2.7855639034291677)
No.275:W100->Mo41(2.7696998878434411)
No.276:W103->Mo41(2.7355051166761668)
No.277:W106->Mo41(2.7427989317040953)
No.278:Mo43->Mo42(2.7928273246112263)
No.279:Nb67->Mo42(2.7791376661087139)
No.280:Nb74->Mo42(2.8528146374864476)
No.281:W99->Mo42(2.7676886333403194)
No.282:W104->Mo42(2.7519202785825452)
No.283:W111->Mo42(2.7530224082950809)
No.284:Mo49->Mo43(2.7559897160996139)
No.285:Nb68->Mo43(2.7972276753972998)
No.286:Nb80->Mo43(2.7931747865255812)
No.287:W105->Mo43(2.7513148987615157)
No.288:Mo45->Mo44(2.7445229635648483)
No.289:Nb69->Mo44(2.7607403128228616)
No.290:Nb79->Mo44(2.7550441896542903)
No.291:W107->Mo44(2.7745594006837195)
No.292:W113->Mo44(2.8243192053587198)
No.293:Mo51->Mo45(2.7499504687266456)
No.294:Nb70->Mo45(2.7876232458165355)
No.295:W100->Mo45(2.7932311553977112)
No.296:W106->Mo45(2.7508063662209321)
No.297:Mo53->Mo46(2.7530275866745804)
No.298:Nb74->Mo46(2.7886071803418733)
No.299:Nb91->Mo46(2.8363923643220854)
No.300:Nb92->Mo46(2.8210670099215007)
No.301:Nb95->Mo46(2.7748257118810615)
No.302:Mo48->Mo47(2.7653904501860458)
No.303:Nb65->Mo47(2.8056316905580236)
No.304:Nb75->Mo47(2.8141504404670981)
No.305:W112->Mo47(2.7426088448060604)
No.306:W127->Mo47(2.798012851510856)
No.307:Mo50->Mo48(2.7680130713288249)
No.308:Nb73->Mo48(2.7732553841810659)
No.309:W113->Mo48(2.7770593198275448)
No.310:W117->Mo48(2.7511800506740056)
No.311:W119->Mo48(2.7673392591367314)
No.312:Nb81->Mo49(2.8026130515342227)
No.313:Nb82->Mo49(2.7553123487696882)
No.314:Nb88->Mo49(2.8186293731933856)
No.315:W111->Mo49(2.7843511782293673)
No.316:Mo54->Mo50(2.8215062262572554)
No.317:W112->Mo50(2.7452770886906945)
No.318:W127->Mo50(2.7841199490143786)
No.319:Mo52->Mo51(2.8106084279225416)
No.320:Nb79->Mo51(2.7539774304607874)
No.321:W110->Mo51(2.7827373155592574)
No.322:W120->Mo51(2.8194187651984381)
No.323:Mo60->Mo52(2.7265900458068262)
No.324:Nb87->Mo52(2.7840081002846784)
No.325:W114->Mo52(2.7543212628061076)
No.326:W115->Mo52(2.783045699113341)
No.327:Mo54->Mo53(2.8221394593004621)
No.328:W108->Mo53(2.7841189594844513)
No.329:W114->Mo53(2.7750541514788627)
No.330:W115->Mo53(2.7641063537421187)
No.331:W116->Mo53(2.7807029700734729)
No.332:Nb76->Mo54(2.758823293769626)
No.333:Nb95->Mo54(2.7920105113855591)
No.334:W97->Mo54(2.8060990134721919)
No.335:W128->Mo54(2.7933588536341114)
No.336:Mo57->Mo55(2.7818509803157085)
No.337:Mo61->Mo55(2.7554502311667832)
No.338:Nb89->Mo55(2.7538757784265626)
No.339:W113->Mo55(2.7402502120220076)
No.340:W117->Mo55(2.773097771981186)
No.341:W119->Mo55(2.7482196744607119)
No.342:Mo57->Mo56(2.788295981347531)
No.343:Nb89->Mo56(2.762748524699099)
No.344:Nb91->Mo56(2.8124879302316352)
No.345:W110->Mo56(2.79356443553332)
No.346:W117->Mo56(2.8029400937369338)
No.347:W118->Mo56(2.7704098625356441)
No.348:Nb78->Mo57(2.7951563794881658)
No.349:Nb83->Mo57(2.7820536079913243)
No.350:Nb85->Mo57(2.769874683275265)
No.351:Nb90->Mo57(2.8054114769272269)
No.352:W109->Mo57(2.791670295010384)
No.353:W122->Mo57(2.7956818487059918)
No.354:Mo59->Mo58(2.7897241260703929)
No.355:Nb66->Mo58(2.8528339210050557)
No.356:Nb77->Mo58(2.8354721837381578)
No.357:Nb84->Mo58(2.753141814056562)
No.358:Mo61->Mo59(2.7478147202442385)
No.359:Nb79->Mo59(2.796965115354574)
No.360:Nb92->Mo59(2.8351880345173686)
No.361:W113->Mo59(2.7727642862145134)
No.362:W119->Mo59(2.7999086701704816)
No.363:W120->Mo59(2.7871020752916666)
No.364:Mo62->Mo60(2.7546820877558043)
No.365:Nb86->Mo60(2.8151829561269355)
No.366:W120->Mo60(2.7844347490023686)
No.367:Nb83->Mo61(2.7806286711487518)
No.368:Nb87->Mo61(2.8153944207718338)
No.369:Nb90->Mo61(2.7973912201100863)
No.370:W109->Mo61(2.8005554894562157)
No.371:W124->Mo61(2.7567037347228163)
No.372:Mo63->Mo62(2.7876211621053568)
No.373:Nb87->Mo62(2.814825467632633)
No.374:W114->Mo62(2.7500055289987522)
No.375:W115->Mo62(2.7670779726113972)
No.376:W126->Mo62(2.7855767007058154)
No.377:Nb86->Mo63(2.7810142817348846)
No.378:W102->Mo63(2.7773746676952999)
No.379:Nb90->Mo64(2.7842171938792291)
No.380:W112->Mo64(2.7623844571925487)
No.381:W122->Mo64(2.7831926776874027)
No.382:W127->Mo64(2.7471634918699013)
No.383:Nb67->Nb65(2.8051133951810399)
No.384:W99->Nb65(2.8009238280195041)
No.385:W117->Nb65(2.825847083216543)
No.386:W118->Nb65(2.7912628189085238)
No.387:Nb67->Nb66(2.8244068130674083)
No.388:Nb71->Nb66(2.7807178263205694)
No.389:Nb76->Nb66(2.8225525298919436)
No.390:W97->Nb66(2.7834115252890799)
No.391:W118->Nb66(2.8371596165787833)
No.392:Nb68->Nb67(2.81323652378381)
No.393:W100->Nb67(2.8187251906893893)
No.394:Nb74->Nb68(2.8559029078669731)
No.395:Nb89->Nb68(2.7950753864919782)
No.396:Nb91->Nb68(2.833939286254862)
No.397:W99->Nb68(2.7778626581891461)
No.398:W117->Nb68(2.8157604309477238)
No.399:W118->Nb68(2.7910245970079557)
No.400:Nb70->Nb69(2.8094639963284616)
No.401:W101->Nb69(2.7961779127891786)
No.402:W126->Nb69(2.7776436683434116)
No.403:Nb71->Nb70(2.8109092694407369)
No.404:Nb72->Nb70(2.8821466561980964)
No.405:W97->Nb70(2.797729421118722)
No.406:W107->Nb70(2.854024250672083)
No.407:W100->Nb71(2.8626685034658883)
No.408:W105->Nb72(2.7953912676503569)
No.409:Nb75->Nb73(2.7818958983281461)
No.410:Nb94->Nb73(2.820019676258005)
No.411:W101->Nb73(2.7833891811725167)
No.412:W103->Nb73(2.8243559137304652)
No.413:W127->Nb73(2.8281917922419813)
No.414:Nb80->Nb74(2.7853336606015588)
No.415:W114->Nb74(2.816689383572426)
No.416:W102->Nb75(2.8315165225815822)
No.417:W110->Nb75(2.8128863112532989)
No.418:W117->Nb75(2.8245652713926508)
No.419:W118->Nb75(2.8012943696245283)
No.420:Nb77->Nb76(2.87806493257263)
No.421:Nb96->Nb76(2.7788844911581592)
No.422:W116->Nb76(2.7879018456247993)
No.423:Nb79->Nb77(2.796083262890781)
No.424:W102->Nb77(2.8107967453180605)
No.425:W110->Nb77(2.7826042288828323)
No.426:W118->Nb77(2.8057254640658975)
No.427:W104->Nb78(2.7477955626940549)
No.428:W110->Nb78(2.7704377684286539)
No.429:W111->Nb78(2.8052096550565899)
No.430:Nb84->Nb79(2.7861698958253913)
No.431:W106->Nb79(2.8293483351856525)
No.432:Nb81->Nb80(2.8155424879874178)
No.433:Nb86->Nb80(2.8475272251061416)
No.434:W111->Nb80(2.8014487052922274)
No.435:W112->Nb81(2.8323149585261582)
No.436:W121->Nb81(2.8318005513348843)
No.437:Nb83->Nb82(2.8084402560682835)
No.438:Nb87->Nb82(2.8160485701641398)
No.439:W105->Nb82(2.782876827802629)
No.440:W109->Nb82(2.7972915623582564)
No.441:W115->Nb82(2.8270963317220836)
No.442:Nb88->Nb83(2.8531180170250452)
No.443:W111->Nb83(2.8474103522262273)
No.444:W123->Nb83(2.8029770736345179)
No.445:W125->Nb83(2.815026769981039)
No.446:Nb91->Nb84(2.8166136327179143)
No.447:Nb92->Nb84(2.8591406795793128)
No.448:W110->Nb84(2.80616074988066)
No.449:W118->Nb84(2.7984712904719582)
No.450:W120->Nb84(2.8190794051499584)
No.451:Nb86->Nb85(2.8567398245532214)
No.452:W111->Nb85(2.8136986232046635)
No.453:W123->Nb85(2.7882737760103216)
No.454:Nb94->Nb86(2.8393608710351663)
No.455:W114->Nb86(2.790298562089029)
No.456:W121->Nb86(2.827089140338225)
No.457:Nb88->Nb87(2.8119338034517338)
No.458:W120->Nb87(2.7836942502625215)
No.459:W125->Nb87(2.8319588675273439)
No.460:W115->Nb88(2.7777916635228181)
No.461:W126->Nb88(2.7971265566467935)
No.462:Nb90->Nb89(2.815444741617962)
No.463:W122->Nb89(2.809414943520729)
No.464:W123->Nb90(2.7692107043056713)
No.465:W125->Nb90(2.788095372746187)
No.466:W128->Nb90(2.8334451357467558)
No.467:Nb93->Nb91(2.7944186771049311)
No.468:W122->Nb91(2.8453786862241084)
No.469:Nb93->Nb92(2.7988253379129255)
No.470:W108->Nb92(2.7805099299077218)
No.471:W124->Nb92(2.8491229899853092)
No.472:Nb95->Nb93(2.8260774707866001)
No.473:W120->Nb93(2.7515070183832999)
No.474:W98->Nb94(2.791580950893608)
No.475:W102->Nb94(2.7695436303499372)
No.476:W123->Nb94(2.8281977095798876)
No.477:Nb96->Nb95(2.8634277882989672)
No.478:W108->Nb95(2.7401056133928443)
No.479:W116->Nb95(2.8561378395622592)
No.480:W124->Nb95(2.8441917466132254)
No.481:W102->Nb96(2.8021540680123618)
No.482:W100->W97(2.8236381732510045)
No.483:W116->W97(2.7349029425387505)
No.484:W101->W98(2.8056347626227232)
No.485:W103->W98(2.7663119113927532)
No.486:W121->W98(2.7860591945902327)
No.487:W105->W99(2.7646171557305608)
No.488:W104->W101(2.7703475290244208)
No.489:W107->W101(2.7458806120273511)
No.490:W113->W101(2.7869328935145297)
No.491:W103->W102(2.7867023399558399)
No.492:W106->W102(2.7626127936375591)
No.493:W104->W103(2.7972854502463971)
No.494:W110->W103(2.7702996569085547)
No.495:W105->W104(2.7801917999709147)
No.496:W109->W104(2.7938509120615147)
No.497:W107->W105(2.8068766713647775)
No.498:W111->W105(2.7506445299474502)
No.499:W110->W106(2.7926998740710034)
No.500:W109->W107(2.7542980185828387)
No.501:W128->W108(2.7567306139276604)
No.502:W111->W109(2.7925156877520929)
No.503:W113->W109(2.7866799304761085)
No.504:W128->W112(2.7668848723723163)
No.505:W124->W120(2.8042042496460788)
No.506:W123->W122(2.7639445978545938)
No.507:W127->W123(2.7951644732900682)
No.508:W125->W124(2.7419731660458977)
No.509:W128->W124(2.7944573003322284)
No.510:W126->W125(2.8054157276401006)
No.511:W127->W125(2.7912353272504973)
No.512:W128->W127(2.7981469678159279)
-10.03344   0.00000  -2.84772   0.00000  -2.84856   0.00000  -2.34901   0.00000  -3.37890   0.00000  -2.33737   0.00000  -2.02040   0.00000  -2.83680   0.00000  -2.56896   0.00000  -2.94446   0.00000  -2.55245   0.00000  -2.50989   0.00000  -3.25950   0.00000  -2.60718   0.00000  -2.72017   0.00000  -2.89608   0.00000  -2.56977   0.00000  -3.48386   0.00000  -2.34513   0.00000  -2.43220   0.00000  -1.95822   0.00000  -2.47259   0.00000  -2.89022   0.00000  -2.44162   0.00000  -2.56447   0.00000  -2.45025   0.00000  -2.29933   0.00000  -3.17634   0.00000  -3.25845   0.00000  -3.19570   0.00000  -2.76008   0.00000  -2.62630   0.00000  -2.86942   0.00000  -2.33932   0.00000  -2.55940   0.00000  -2.65434   0.00000  -2.59048   0.00000  -2.40922   0.00000  -4.04612   0.00000  -2.87766   0.00000  -2.58667   0.00000  -2.67190   0.00000  -2.27381   0.00000  -2.20353   0.00000  -2.76731   0.00000  -2.46272   0.00000  -3.21599   0.00000  -2.60611   0.00000  -2.35777   0.00000  -3.08763   0.00000  -2.25031   0.00000  -2.22854   0.00000  -2.89091   0.00000  -2.55008   0.00000  -2.61964   0.00000  -2.16693   0.00000  -2.95286   0.00000  -2.09119   0.00000  -2.44084   0.00000  -2.73739   0.00000  -2.31878   0.00000  -2.30433   0.00000  -2.55003   0.00000  -2.72925   0.00000  -2.85895   0.00000  -2.13779   0.00000  -2.77398   0.00000  -2.26445   0.00000  -2.90823   0.00000  -2.09172   0.00000  -2.57033   0.00000  -2.54833   0.00000  -2.35219   0.00000  -2.32636   0.00000  -2.55584   0.00000  -3.19500   0.00000  -2.32515   0.00000  -3.12326   0.00000  -3.02960   0.00000  -2.13107   0.00000  -2.05804   0.00000  -2.32548   0.00000  -2.73149   0.00000  -2.83634   0.00000  -3.12168   0.00000  -2.21263   0.00000  -2.37182   0.00000  -2.31726   0.00000  -2.56426   0.00000  -3.72266   0.00000  -2.68472   0.00000  -3.47650   0.00000  -2.89699   0.00000  -2.52662   0.00000  -2.47517   0.00000  -2.14926   0.00000  -2.50603   0.00000  -2.83968   0.00000  -2.42685   0.00000  -1.99248   0.00000  -2.12592   0.00000  -2.36152   0.00000  -2.41710   0.00000  -2.31631   0.00000  -2.95020   0.00000  -1.99875   0.00000  -3.03584   0.00000  -2.52723   0.00000  -2.15399   0.00000  -2.74319   0.00000  -2.40690   0.00000  -3.11547   0.00000  -3.01872   0.00000  -1.81295   0.00000  -2.67668   0.00000  -2.19061   0.00000  -2.57004   0.00000  -2.39352   0.00000  -2.40142   0.00000  -2.54508   0.00000  -1.97730   0.00000  -2.04480   0.00000  -1.99797   0.00000  -2.81026   0.00000  -2.41098   0.00000  -2.87112   0.00000  -2.25158   0.00000  -3.04744   0.00000  -2.47469   0.00000  -2.64885   0.00000  -2.73619   0.00000  -2.38121   0.00000  -2.88913   0.00000  -3.68757   0.00000  -2.89828   0.00000  -3.09280   0.00000  -2.39980   0.00000  -2.40751   0.00000  -2.61267   0.00000  -2.99883   0.00000  -2.88457   0.00000  -2.44140   0.00000  -2.32248   0.00000  -2.44851   0.00000  -3.69266   0.00000  -2.80242   0.00000  -2.96365   0.00000  -2.09311   0.00000  -1.83867   0.00000  -2.06584   0.00000  -2.63993   0.00000  -2.22456   0.00000  -2.77147   0.00000  -2.57518   0.00000  -2.33803   0.00000  -2.74842   0.00000  -2.62213   0.00000  -2.26931   0.00000  -2.60906   0.00000  -2.40516   0.00000  -2.23708   0.00000  -2.69995   0.00000  -2.85488   0.00000  -3.07983   0.00000  -3.18526   0.00000  -3.31751   0.00000  -3.32453   0.00000  -2.19806   0.00000  -1.81941   0.00000  -2.14257   0.00000  -2.05984   0.00000  -2.26363   0.00000  -2.75139   0.00000  -3.57733   0.00000  -2.21537   0.00000  -2.44809   0.00000  -2.29752   0.00000  -2.28986   0.00000  -2.75718   0.00000  -3.80280   0.00000  -2.98646   0.00000  -2.88621   0.00000  -2.80286   0.00000  -2.57655   0.00000  -3.16052   0.00000  -2.93122   0.00000  -2.27741   0.00000  -2.45171   0.00000  -2.05887   0.00000  -2.96829   0.00000  -3.44552   0.00000  -2.61967   0.00000  -3.20295   0.00000  -3.11788   0.00000  -2.30273   0.00000  -2.42008   0.00000  -1.88380   0.00000  -2.28360   0.00000  -2.14452   0.00000  -2.28166   0.00000  -2.98267   0.00000  -2.35631   0.00000  -2.28174   0.00000  -2.23956   0.00000  -2.45158   0.00000  -2.79424   0.00000  -2.90500   0.00000  -2.62087   0.00000  -3.53293   0.00000  -2.92277   0.00000  -2.31150   0.00000  -2.51098   0.00000  -2.93449   0.00000  -2.94575   0.00000  -2.93705   0.00000  -2.14302   0.00000  -2.35773   0.00000  -2.46314   0.00000  -2.38995   0.00000  -3.30534   0.00000  -2.32602   0.00000  -2.76861   0.00000  -2.05452   0.00000  -3.66455   0.00000  -3.42954   0.00000  -2.69865   0.00000  -2.69313   0.00000  -3.00590   0.00000  -2.26283   0.00000  -2.81493   0.00000  -2.79400   0.00000  -2.37465   0.00000  -2.90175   0.00000  -2.72720   0.00000  -2.78597   0.00000  -3.02098   0.00000  -3.86330   0.00000  -2.24299   0.00000  -2.36310   0.00000  -2.62420   0.00000  -3.15971   0.00000  -2.60812   0.00000  -2.90016   0.00000  -2.83955   0.00000  -2.40742   0.00000  -2.73159   0.00000  -3.17266   0.00000  -2.36209   0.00000  -2.71571   0.00000  -2.51845   0.00000  -3.32273   0.00000  -2.98946   0.00000  -2.48589   0.00000  -2.83613   0.00000  -2.88836   0.00000  -2.25312   0.00000  -3.22028   0.00000  -2.84908   0.00000  -2.94670   0.00000  -2.94961   0.00000  -2.77658   0.00000  -2.42659   0.00000  -2.34942   0.00000  -3.30163   0.00000  -2.83544   0.00000  -2.86528   0.00000  -2.62822   0.00000  -2.67050   0.00000  -2.96608   0.00000  -3.04911   0.00000  -3.41555   0.00000  -3.41618   0.00000  -2.85299   0.00000  -2.21659   0.00000  -2.30759   0.00000  -2.76044   0.00000  -2.81993   0.00000  -2.82392   0.00000  -2.76681   0.00000  -2.20264   0.00000  -2.88726   0.00000  -2.41902   0.00000  -2.56135   0.00000  -2.85164   0.00000  -2.92695   0.00000  -2.91117   0.00000  -2.80205   0.00000  -2.94313   0.00000  -3.09866   0.00000  -2.75086   0.00000  -3.28246   0.00000  -3.49769   0.00000  -2.96318   0.00000  -2.59406   0.00000  -2.85143   0.00000  -3.00262   0.00000  -2.58474   0.00000  -2.98393   0.00000  -2.96858   0.00000  -3.13915   0.00000  -2.60279   0.00000  -2.56365   0.00000  -3.03622   0.00000  -2.47845   0.00000  -2.92847   0.00000  -2.76039   0.00000  -3.43888   0.00000  -2.82960   0.00000  -2.60083   0.00000  -3.12435   0.00000  -2.98696   0.00000  -3.05583   0.00000  -2.92232   0.00000  -3.30206   0.00000  -3.12669   0.00000  -2.82659   0.00000  -2.71693   0.00000  -2.31686   0.00000  -3.35798   0.00000  -3.08584   0.00000  -2.69497   0.00000  -3.12798   0.00000  -2.62940   0.00000  -2.60490   0.00000  -3.01617   0.00000  -2.95470   0.00000  -3.34800   0.00000  -2.90507   0.00000  -2.34144   0.00000  -2.87805   0.00000  -3.04462   0.00000  -3.23358   0.00000  -3.05083   0.00000  -3.30049   0.00000  -3.06230   0.00000  -2.82377   0.00000  -2.86110   0.00000  -2.47087   0.00000  -2.76076   0.00000  -2.87602   0.00000  -3.19127   0.00000  -2.74212   0.00000  -3.04316   0.00000  -2.64795   0.00000  -2.86429   0.00000  -2.57884   0.00000  -2.66533   0.00000  -2.42637   0.00000  -2.62719   0.00000  -2.84331   0.00000  -2.57569   0.00000  -2.83185   0.00000  -2.51703   0.00000  -2.63590   0.00000  -2.64340   0.00000  -2.46566   0.00000  -2.40712   0.00000  -2.55161   0.00000  -2.88605   0.00000  -2.99070   0.00000  -2.81120   0.00000  -2.63630   0.00000  -3.10641   0.00000  -2.81764   0.00000  -2.64110   0.00000  -2.68826   0.00000  -3.03848   0.00000  -2.89427   0.00000  -2.61367   0.00000  -2.43771   0.00000  -2.66778   0.00000  -2.67376   0.00000  -3.06489   0.00000  -2.68899   0.00000  -2.58884   0.00000  -3.18664   0.00000  -2.81591   0.00000  -2.94028   0.00000  -3.21838   0.00000  -2.86141   0.00000  -2.87781   0.00000  -3.28528   0.00000  -3.05631   0.00000  -3.21174   0.00000  -3.14361   0.00000  -3.21396   0.00000  -2.67122   0.00000  -3.01364   0.00000  -3.02027   0.00000  -3.59449   0.00000  -3.37382   0.00000  -3.43826   0.00000  -2.75828   0.00000  -3.06577   0.00000  -3.00336   0.00000  -3.05060   0.00000  -3.38300   0.00000  -3.11669   0.00000  -3.37580   0.00000  -2.74858   0.00000  -3.05876   0.00000  -3.84592   0.00000  -3.67390   0.00000  -3.78160   0.00000  -3.69921   0.00000  -3.07669   0.00000  -3.48180   0.00000  -2.99304   0.00000  -2.46120   0.00000  -3.49105   0.00000  -3.82937   0.00000  -3.40599   0.00000  -3.70049   0.00000  -2.76267   0.00000  -3.12169   0.00000  -3.96528   0.00000  -3.36142   0.00000  -2.90589   0.00000  -2.87447   0.00000  -3.04855   0.00000  -3.03584   0.00000  -3.37624   0.00000  -3.90570   0.00000  -3.36271   0.00000  -3.42044   0.00000  -3.36829   0.00000  -3.42442   0.00000  -3.19054   0.00000  -3.58514   0.00000  -3.69781   0.00000  -3.05905   0.00000  -3.43082   0.00000  -2.70635   0.00000  -3.85215   0.00000  -3.13927   0.00000  -3.24565   0.00000  -3.43532   0.00000  -3.29504   0.00000  -3.32687   0.00000  -3.21093   0.00000  -3.51822   0.00000  -3.16004   0.00000  -2.92243   0.00000  -2.99161   0.00000  -2.71374   0.00000  -3.34388   0.00000  -3.05083   0.00000  -3.33312   0.00000  -2.96250   0.00000  -3.01649   0.00000  -3.17939   0.00000  -3.18203   0.00000  -3.33262   0.00000  -3.20897   0.00000  -3.29583   0.00000  -3.62480   0.00000  -3.85713   0.00000  -3.36096   0.00000  -3.29902   0.00000  -3.66446   0.00000  -2.79575   0.00000  -3.50223   0.00000  -3.45415   0.00000  -3.42391   0.00000  -3.36514   0.00000  -3.22219   0.00000  -3.05151   0.00000  -2.84953   0.00000  -3.67670   0.00000  -3.25697   0.00000  -3.29039   0.00000  -3.48477   0.00000  -2.87078   0.00000  -3.20649   0.00000  -3.71760   0.00000  -3.51654   0.00000  -3.90752   0.00000  -3.09557   0.00000  -3.22929   0.00000  -3.80693   0.00000  -2.81807   0.00000  -2.90765   0.00000  -3.45833   0.00000  -2.64491   0.00000  -3.84035   0.00000  -2.99298   0.00000  -3.19939   0.00000  -3.42400   0.00000  -3.47514   0.00000  -3.22287   0.00000  -3.81257   0.00000  -3.24201   0.00000  -2.91218   0.00000  -3.17985   0.00000  -2.98828   0.00000  -3.17208   0.00000  -3.22051   0.00000  -2.71300   0.00000  -2.79876   0.00000  -3.56076   0.00000  -2.65157   0.00000  -3.29536   0.00000  -3.39743   0.00000  -2.90499   0.00000  -3.44601   0.00000  -3.61057   0.00000  -2.80272   0.00000  -3.60424   0.00000  -3.01483   0.00000  -3.64999   0.00000  -3.15662   0.00000  -3.07603   0.00000  -3.07636   0.00000  -3.12927