ESCALE ; pCOHP file generated by LOBSTER. Energy is shifted such that the Fermi level lies at 0 eV.
       513          1        301  -2.81318e-01   1.47688e+01   9.75213e+00 
Average
No.1:Mo7->Mo1(2.7402486202237961)
No.2:Mo9->Mo1(2.8141489767864125)
No.3:Mo32->Mo1(2.76932846449915)
No.4:Nb60->Mo1(2.7788485626492103)
No.5:Nb64->Mo1(2.7891937727790093)
No.6:W104->Mo1(2.7743392579550585)
No.7:W108->Mo1(2.7195729902522574)
No.8:W126->Mo1(2.8092910125096431)
No.9:Mo6->Mo2(2.7821678505570553)
No.10:Mo7->Mo2(2.7561426953441854)
No.11:Mo28->Mo2(2.7538565832212627)
No.12:Mo32->Mo2(2.7751219888518044)
No.13:W107->Mo2(2.7930046124532786)
No.14:W108->Mo2(2.801399432616849)
No.15:W126->Mo2(2.7512963760244826)
No.16:W128->Mo2(2.7649133045662513)
No.17:Mo8->Mo3(2.8081933963584222)
No.18:Mo9->Mo3(2.7871398236275824)
No.19:Mo30->Mo3(2.7776458694601183)
No.20:Mo32->Mo3(2.7726900071034595)
No.21:Nb36->Mo3(2.7415876727135324)
No.22:Nb64->Mo3(2.7126767517170682)
No.23:W108->Mo3(2.747768354807659)
No.24:W127->Mo3(2.8071444619490915)
No.25:Mo8->Mo4(2.7493037047614393)
No.26:Mo9->Mo4(2.7292480520822768)
No.27:Mo30->Mo4(2.7961000048218798)
No.28:Mo31->Mo4(2.8146062485056764)
No.29:Nb34->Mo4(2.7643352680001407)
No.30:Nb62->Mo4(2.828585330652341)
No.31:Nb64->Mo4(2.7461113110030295)
No.32:W106->Mo4(2.792381987582965)
No.33:Mo32->Mo5(2.7297022269759315)
No.34:Nb35->Mo5(2.8346377227037336)
No.35:Nb36->Mo5(2.810057815694917)
No.36:Nb63->Mo5(2.8363532215901177)
No.37:W107->Mo5(2.8123123544936144)
No.38:W108->Mo5(2.7584866361250304)
No.39:W127->Mo5(2.7998364546675583)
No.40:W128->Mo5(2.7661121968209903)
No.41:Nb38->Mo6(2.7633653307440644)
No.42:Nb39->Mo6(2.7841954154115061)
No.43:W98->Mo6(2.7538737713702228)
No.44:W100->Mo6(2.7248923658746413)
No.45:W101->Mo6(2.805682830653295)
No.46:W109->Mo6(2.776576358051507)
No.47:W110->Mo6(2.7992454625434)
No.48:Nb37->Mo7(2.81218271549369)
No.49:Nb38->Mo7(2.7885609943996816)
No.50:Nb39->Mo7(2.8175544875736431)
No.51:Ta72->Mo7(2.8136066416375982)
No.52:W99->Mo7(2.7482165826953064)
No.53:W101->Mo7(2.7679943619149787)
No.54:Mo11->Mo8(2.7555608785898298)
No.55:Nb33->Mo8(2.8468232011304009)
No.56:Nb40->Mo8(2.7952566359698778)
No.57:W102->Mo8(2.7726095779415836)
No.58:W111->Mo8(2.8042639825028068)
No.59:W112->Mo8(2.7453723278014297)
No.60:Mo10->Mo9(2.7884545970761097)
No.61:Mo11->Mo9(2.7512461709350191)
No.62:Nb37->Mo9(2.7842985944637886)
No.63:W97->Mo9(2.7612518606626333)
No.64:W112->Mo9(2.7476755997830313)
No.65:Mo15->Mo10(2.7649789254749106)
No.66:Nb45->Mo10(2.7781468917840253)
No.67:Ta77->Mo10(2.8016314144147074)
No.68:W104->Mo10(2.7861630781933702)
No.69:W105->Mo10(2.7798725905068564)
No.70:W106->Mo10(2.7379637738457046)
No.71:W113->Mo10(2.7862821833204028)
No.72:Mo14->Mo11(2.7804001486536354)
No.73:Mo15->Mo11(2.7820439272856143)
No.74:Nb34->Mo11(2.7618370755369988)
No.75:Nb43->Mo11(2.7960721104470014)
No.76:Nb45->Mo11(2.7108423086315505)
No.77:W106->Mo11(2.7873040491680015)
No.78:Mo15->Mo12(2.7636980522588579)
No.79:Nb34->Mo12(2.7990009451438889)
No.80:Nb35->Mo12(2.8147319937972419)
No.81:Nb43->Mo12(2.8437013477401862)
No.82:Nb44->Mo12(2.8497438817393039)
No.83:Ta81->Mo12(2.781649978723892)
No.84:W106->Mo12(2.7562869172456792)
No.85:W107->Mo12(2.8051935160463377)
No.86:Mo16->Mo13(2.7595864455503345)
No.87:Nb38->Mo13(2.8323446304794495)
No.88:Nb39->Mo13(2.7772997364992849)
No.89:Nb46->Mo13(2.7694140702717371)
No.90:W109->Mo13(2.8116519027847233)
No.91:W110->Mo13(2.7741366556864131)
No.92:W116->Mo13(2.7946528271123148)
No.93:W117->Mo13(2.8250747840045523)
No.94:Mo17->Mo14(2.7824532496950596)
No.95:Nb40->Mo14(2.7830918238723994)
No.96:Nb48->Mo14(2.7753700010244575)
No.97:W111->Mo14(2.7556507471271692)
No.98:W112->Mo14(2.8253205952733986)
No.99:W118->Mo14(2.828444778222142)
No.100:W120->Mo14(2.773507340266316)
No.101:Nb46->Mo15(2.8485056616665503)
No.102:Nb49->Mo15(2.8268083624642935)
No.103:W109->Mo15(2.8161554793592041)
No.104:W115->Mo15(2.7744850521807165)
No.105:W120->Mo15(2.8163519033947115)
No.106:Mo19->Mo16(2.7738816947429537)
No.107:Mo21->Mo16(2.7894878408661024)
No.108:Nb41->Mo16(2.740210437813436)
No.109:Nb51->Mo16(2.7852139086145531)
No.110:Ta77->Mo16(2.8167739440142889)
No.111:W114->Mo16(2.8301849660113265)
No.112:W121->Mo16(2.7892166044147588)
No.113:Mo23->Mo17(2.7946050724951137)
No.114:Mo24->Mo17(2.7727750998522716)
No.115:Nb43->Mo17(2.753249319650918)
No.116:Nb50->Mo17(2.7913187459623505)
No.117:Nb51->Mo17(2.8063491941054028)
No.118:Ta79->Mo17(2.771808982324508)
No.119:W114->Mo17(2.8129901006736118)
No.120:Mo21->Mo18(2.7960960009514948)
No.121:Mo24->Mo18(2.7900130241149301)
No.122:Nb41->Mo18(2.7825785546561361)
No.123:Nb43->Mo18(2.8488390318374708)
No.124:Nb44->Mo18(2.7758074674984847)
No.125:Nb51->Mo18(2.7171710257095611)
No.126:W114->Mo18(2.7961350481436709)
No.127:W122->Mo18(2.7948347926956751)
No.128:Mo25->Mo19(2.7708046244570301)
No.129:Nb46->Mo19(2.7952749004611235)
No.130:Nb53->Mo19(2.785076654340485)
No.131:Nb55->Mo19(2.724142503032267)
No.132:W116->Mo19(2.7486485373462917)
No.133:W117->Mo19(2.7364009071223152)
No.134:W124->Mo19(2.8027413514972199)
No.135:Mo25->Mo20(2.7262298845938404)
No.136:Nb47->Mo20(2.7942151536180941)
No.137:Nb52->Mo20(2.8308255828370781)
No.138:Nb53->Mo20(2.7908812895666806)
No.139:Nb54->Mo20(2.7832259940315209)
No.140:Ta83->Mo20(2.8493868704239285)
No.141:W116->Mo20(2.7757968885810809)
No.142:W117->Mo20(2.7503762016142499)
No.143:Mo25->Mo21(2.8020819345738999)
No.144:Mo26->Mo21(2.7934102698629233)
No.145:Nb55->Mo21(2.7839807013323146)
No.146:Nb58->Mo21(2.7916345408933929)
No.147:W117->Mo21(2.7249813887610626)
No.148:W119->Mo21(2.7281511932732574)
No.149:Mo25->Mo22(2.7810034853352041)
No.150:Mo26->Mo22(2.7349628474560759)
No.151:Nb47->Mo22(2.8147607041136324)
No.152:Nb54->Mo22(2.796136861016012)
No.153:Nb56->Mo22(2.8199107696580703)
No.154:W117->Mo22(2.7718409657941052)
No.155:W118->Mo22(2.8231487986365935)
No.156:W119->Mo22(2.7353219553825161)
No.157:Nb48->Mo23(2.7356100235161307)
No.158:Nb56->Mo23(2.823937272584486)
No.159:Nb57->Mo23(2.7706248658398209)
No.160:Nb59->Mo23(2.8060724139625166)
No.161:W118->Mo23(2.766708708528677)
No.162:W120->Mo23(2.7748968352842658)
No.163:W125->Mo23(2.8257001508024562)
No.164:Mo27->Mo24(2.8433323162899002)
No.165:Nb49->Mo24(2.7490758652870904)
No.166:Nb57->Mo24(2.7828327081201101)
No.167:Nb58->Mo24(2.8019124459346019)
No.168:Nb59->Mo24(2.8161957472126757)
No.169:W120->Mo24(2.7570993071567829)
No.170:Mo28->Mo25(2.8010421321617076)
No.171:Mo29->Mo25(2.775897890057164)
No.172:Nb61->Mo25(2.783898248753546)
No.173:W126->Mo25(2.7951924569290445)
No.174:Mo29->Mo26(2.7880496111561244)
No.175:Nb61->Mo26(2.7971242666230891)
No.176:Nb63->Mo26(2.8213223721078267)
No.177:Ta87->Mo26(2.7699860823361204)
No.178:W122->Mo26(2.7828534164156635)
No.179:W127->Mo26(2.8280781648743285)
No.180:Mo31->Mo27(2.8114388263892649)
No.181:Nb62->Mo27(2.8311826222377277)
No.182:Nb63->Mo27(2.7691438377035626)
No.183:Ta89->Mo27(2.7759816844813279)
No.184:W122->Mo27(2.8198283792857577)
No.185:W123->Mo27(2.7675866478897495)
No.186:W128->Mo27(2.808251219037305)
No.187:Nb53->Mo28(2.7481997863050927)
No.188:Nb55->Mo28(2.7879073340592151)
No.189:W98->Mo28(2.8038128770274238)
No.190:W100->Mo28(2.7561601523542127)
No.191:W101->Mo28(2.7477690779007227)
No.192:W124->Mo28(2.7822397220954076)
No.193:Nb33->Mo29(2.8376693553076664)
No.194:Nb54->Mo29(2.7290092993220676)
No.195:Nb56->Mo29(2.8115651346486517)
No.196:Ta66->Mo29(2.7629520024932419)
No.197:W99->Mo29(2.8139346806224328)
No.198:W101->Mo29(2.7875499988259578)
No.199:Nb33->Mo30(2.7468323274076387)
No.200:Nb56->Mo30(2.8253830628042995)
No.201:Nb57->Mo30(2.8193785377965379)
No.202:Nb59->Mo30(2.7711970070824097)
No.203:W102->Mo30(2.7666080674505)
No.204:W125->Mo30(2.7590359426149789)
No.205:Nb59->Mo31(2.8448683707041749)
No.206:Ta67->Mo31(2.7176383688106371)
No.207:Ta91->Mo31(2.7499409348940094)
No.208:W97->Mo31(2.7876400480525163)
No.209:W98->Mo31(2.7799126772786602)
No.210:W124->Mo31(2.8172849912244722)
No.211:Nb52->Mo32(2.7639385973019523)
No.212:Nb53->Mo32(2.8282687497165009)
No.213:Ta93->Mo32(2.8012346149724205)
No.214:W125->Mo32(2.8148933060256272)
No.215:Nb36->Nb33(2.7810405244260843)
No.216:Ta68->Nb33(2.8466174682099967)
No.217:Ta71->Nb33(2.849899026767122)
No.218:Ta95->Nb33(2.7852070192741532)
No.219:W127->Nb33(2.7760265584200896)
No.220:Ta67->Nb34(2.8585499961209768)
No.221:Ta74->Nb34(2.8629759274737081)
No.222:W102->Nb34(2.7880919372700981)
No.223:W103->Nb34(2.8627995635539083)
No.224:W111->Nb34(2.779126735815892)
No.225:Ta66->Nb35(2.8717408471697423)
No.226:Ta67->Nb35(2.8052049428824306)
No.227:Ta74->Nb35(2.8536286534447064)
No.228:Ta75->Nb35(2.8265032548445514)
No.229:Ta76->Nb35(2.803654701699783)
No.230:W103->Nb35(2.7751861163850728)
No.231:Nb40->Nb36(2.8186448137323938)
No.232:Ta66->Nb36(2.8495345632587239)
No.233:Ta75->Nb36(2.8822073982214027)
No.234:Ta76->Nb36(2.8022673919553922)
No.235:W112->Nb36(2.7694327763132587)
No.236:Nb45->Nb37(2.8363067078038138)
No.237:Ta78->Nb37(2.878778620741373)
No.238:Ta82->Nb37(2.8340275574745397)
No.239:W104->Nb37(2.7411000930653251)
No.240:W108->Nb37(2.8122864278534863)
No.241:W113->Nb37(2.8108891666267839)
No.242:Ta78->Nb38(2.8278355401740609)
No.243:Ta81->Nb38(2.8106939751615712)
No.244:Ta82->Nb38(2.8436575065496248)
No.245:W107->Nb38(2.7567242610983147)
No.246:W108->Nb38(2.8245031752754621)
No.247:Nb41->Nb39(2.8411451225721573)
No.248:Nb42->Nb39(2.8677826739432097)
No.249:Ta70->Nb39(2.8190227989015852)
No.250:Ta71->Nb39(2.8424391048102113)
No.251:Ta78->Nb39(2.7765223463214057)
No.252:Nb42->Nb40(2.8660199364483701)
No.253:Ta68->Nb40(2.801385718830903)
No.254:Ta71->Nb40(2.8692251435719629)
No.255:Ta79->Nb40(2.7937699394892319)
No.256:Ta80->Nb40(2.7904575403822776)
No.257:Ta74->Nb41(2.8176424623038798)
No.258:Ta75->Nb41(2.8580240530479535)
No.259:W110->Nb41(2.8210122952917733)
No.260:W117->Nb41(2.7913509009006883)
No.261:W119->Nb41(2.8020398786118772)
No.262:Nb47->Nb42(2.7940946153220896)
No.263:Ta72->Nb42(2.8833433632774872)
No.264:Ta75->Nb42(2.8450463238076042)
No.265:W117->Nb42(2.8302703151492907)
No.266:W118->Nb42(2.8095451438967474)
No.267:W119->Nb42(2.7884697740672535)
No.268:Nb49->Nb43(2.8221755368949979)
No.269:Ta74->Nb43(2.8132640990968509)
No.270:W111->Nb43(2.7498703841351677)
No.271:W120->Nb43(2.7404744252724011)
No.272:Nb49->Nb44(2.7836286263482908)
No.273:Ta74->Nb44(2.7881183537425307)
No.274:Ta75->Nb44(2.8196106242444046)
No.275:Ta76->Nb44(2.8829483875203392)
No.276:Ta85->Nb44(2.7999172608677969)
No.277:W119->Nb44(2.8408175554139676)
No.278:Nb48->Nb45(2.816640404674053)
No.279:Ta83->Nb45(2.8790499596814265)
No.280:W112->Nb45(2.7877967190400743)
No.281:W115->Nb45(2.8147574843191161)
No.282:W120->Nb45(2.7964592308187379)
No.283:Ta77->Nb46(2.7905089614819309)
No.284:Ta81->Nb46(2.781743894676183)
No.285:Ta89->Nb46(2.830579690801406)
No.286:W121->Nb46(2.7529824285742102)
No.287:W123->Nb46(2.7741104661201335)
No.288:Nb50->Nb47(2.8124664194358036)
No.289:Ta78->Nb47(2.8185261739160037)
No.290:Ta79->Nb47(2.874418902800973)
No.291:Ta86->Nb47(2.8293078720486973)
No.292:W113->Nb47(2.8754802184857478)
No.293:Ta80->Nb48(2.7874295283518382)
No.294:Ta82->Nb48(2.8535287836730521)
No.295:Ta87->Nb48(2.8396663084677849)
No.296:Ta88->Nb48(2.7976087268302479)
No.297:Ta90->Nb48(2.8472782390335611)
No.298:Ta81->Nb49(2.8450221040145629)
No.299:Ta89->Nb49(2.7660830955147242)
No.300:W122->Nb49(2.8201020100498786)
No.301:W123->Nb49(2.8240940092450941)
No.302:Nb54->Nb50(2.87796838909542)
No.303:Nb56->Nb50(2.8126325082624626)
No.304:Nb57->Nb50(2.8024158035399838)
No.305:Ta84->Nb50(2.8412324676795659)
No.306:Ta92->Nb50(2.859145476968179)
No.307:W118->Nb50(2.7472294172374889)
No.308:Nb55->Nb51(2.8500693444160312)
No.309:Nb57->Nb51(2.8673067264820369)
No.310:Nb58->Nb51(2.7743905639232538)
No.311:Ta84->Nb51(2.8006511754961108)
No.312:Ta92->Nb51(2.8480860757313757)
No.313:Nb60->Nb52(2.794301826337338)
No.314:Nb64->Nb52(2.8481704234379075)
No.315:Ta86->Nb52(2.8401973597211829)
No.316:Ta88->Nb52(2.8829623994996001)
No.317:Ta90->Nb52(2.7902087965949005)
No.318:W126->Nb52(2.7845736862193946)
No.319:Ta90->Nb53(2.8462212574820125)
No.320:W123->Nb53(2.7964485662975176)
No.321:W126->Nb53(2.7943043760076738)
No.322:W128->Nb53(2.7776206667393364)
No.323:Nb60->Nb54(2.8710629932266825)
No.324:Ta86->Nb54(2.8822790220593006)
No.325:Ta95->Nb54(2.849024890483439)
No.326:W126->Nb54(2.7964373687487796)
No.327:Nb61->Nb55(2.786985938274126)
No.328:Ta94->Nb55(2.840398491253473)
No.329:Ta96->Nb55(2.8866135217288482)
No.330:W121->Nb55(2.8006478536579698)
No.331:Ta87->Nb56(2.7704381196142371)
No.332:Ta95->Nb56(2.8296167272482555)
No.333:W127->Nb56(2.7954252080129343)
No.334:Nb62->Nb57(2.8049718539931883)
No.335:Ta95->Nb57(2.8572503351602463)
No.336:Ta96->Nb57(2.8875686614238565)
No.337:Nb61->Nb58(2.8330566156708041)
No.338:Nb62->Nb58(2.8637152987012748)
No.339:Nb63->Nb58(2.8051477724759009)
No.340:Ta96->Nb58(2.8523756708705372)
No.341:W122->Nb58(2.7281358577476893)
No.342:Nb62->Nb59(2.7729762810543317)
No.343:Nb64->Nb59(2.8370933844586066)
No.344:Ta88->Nb59(2.7983392933769466)
No.345:Ta89->Nb59(2.8258541499694925)
No.346:Ta65->Nb60(2.8005698712714202)
No.347:Ta91->Nb60(2.8426073631551501)
No.348:Ta92->Nb60(2.8838038750001367)
No.349:W97->Nb60(2.8269694095881528)
No.350:W99->Nb60(2.7798166266397586)
No.351:Ta66->Nb61(2.8025698645158776)
No.352:W100->Nb61(2.8354817156094323)
No.353:W101->Nb61(2.8073260985888799)
No.354:W103->Nb61(2.837782092104272)
No.355:Ta67->Nb62(2.8239961041704129)
No.356:W102->Nb62(2.7836269421882092)
No.357:W103->Nb62(2.7845170679319078)
No.358:Ta66->Nb63(2.8197066333829386)
No.359:Ta67->Nb63(2.8583265619177944)
No.360:Ta93->Nb63(2.7768455736264781)
No.361:W103->Nb63(2.8035764409730084)
No.362:Ta91->Nb64(2.8606592652034917)
No.363:W97->Nb64(2.8137985910250607)
No.364:W125->Nb64(2.8088358296836442)
No.365:Ta68->Ta65(2.8155741995376919)
No.366:Ta69->Ta65(2.8181529493880091)
No.367:Ta94->Ta65(2.816156551642818)
No.368:Ta95->Ta65(2.8372875439058585)
No.369:Ta96->Ta65(2.8523635027013778)
No.370:W104->Ta65(2.7694284684258346)
No.371:W105->Ta65(2.8002528847072363)
No.372:Ta70->Ta66(2.8799737664195453)
No.373:Ta71->Ta66(2.8111561414692221)
No.374:W127->Ta66(2.7837451033319005)
No.375:W106->Ta67(2.7837439736804326)
No.376:W107->Ta67(2.768178259123693)
No.377:W128->Ta67(2.7664984775965409)
No.378:Ta72->Ta68(2.8448098319247954)
No.379:Ta73->Ta68(2.8436866719303793)
No.380:W99->Ta68(2.8628131372688177)
No.381:W102->Ta68(2.7775907960285497)
No.382:W111->Ta68(2.8079688933359748)
No.383:Ta73->Ta69(2.8531581085891453)
No.384:Ta74->Ta69(2.7988980521839939)
No.385:W100->Ta69(2.8481626257179418)
No.386:W102->Ta69(2.8341197053660148)
No.387:W103->Ta69(2.8024900813383051)
No.388:W110->Ta69(2.8296506110942725)
No.389:W111->Ta69(2.8355642863325121)
No.390:Ta74->Ta70(2.8557905814292135)
No.391:Ta75->Ta70(2.8575598751740428)
No.392:W100->Ta70(2.7476259048469029)
No.393:W101->Ta70(2.8207520414362599)
No.394:W103->Ta70(2.8133206882910891)
No.395:W110->Ta70(2.8060099077726126)
No.396:Ta72->Ta71(2.8344424005901052)
No.397:Ta75->Ta71(2.8601026214431888)
No.398:W99->Ta71(2.7640661056177107)
No.399:W101->Ta71(2.801665016333839)
No.400:Ta78->Ta72(2.8336760791242335)
No.401:Ta79->Ta72(2.8824360572672898)
No.402:W104->Ta72(2.7927537851181823)
No.403:W113->Ta72(2.8168142365107802)
No.404:Ta77->Ta73(2.8005535260975329)
No.405:Ta79->Ta73(2.8519691338389124)
No.406:W104->Ta73(2.8146201277502576)
No.407:W105->Ta73(2.8165361635972319)
No.408:W113->Ta73(2.7704430927870018)
No.409:W114->Ta73(2.8219447148480157)
No.410:W114->Ta74(2.7625466537273287)
No.411:Ta80->Ta75(2.8385747796482423)
No.412:Ta80->Ta76(2.8751161823122922)
No.413:Ta81->Ta76(2.8267559279312664)
No.414:Ta82->Ta76(2.8085155177836101)
No.415:W107->Ta76(2.8068895003381735)
No.416:W108->Ta76(2.8063749256895676)
No.417:Ta84->Ta77(2.8147747341927083)
No.418:W109->Ta77(2.7709138429726541)
No.419:W110->Ta77(2.7616682396911063)
No.420:W115->Ta77(2.7891004816201272)
No.421:Ta83->Ta78(2.7980274935683496)
No.422:W116->Ta78(2.7761681780427847)
No.423:W117->Ta78(2.8122471147611745)
No.424:Ta84->Ta79(2.8481302245052511)
No.425:W111->Ta79(2.7711917199154517)
No.426:W118->Ta79(2.7822559897609196)
No.427:Ta85->Ta80(2.8613570876472001)
No.428:W112->Ta80(2.8589370437855104)
No.429:W118->Ta80(2.7860242934498483)
No.430:W119->Ta80(2.8598408659631107)
No.431:Ta85->Ta81(2.8401964157521902)
No.432:W109->Ta81(2.7785329309229563)
No.433:W116->Ta81(2.8488928952656396)
No.434:Ta83->Ta82(2.8210460080283228)
No.435:Ta85->Ta82(2.8622366032512025)
No.436:W112->Ta82(2.8317587907669335)
No.437:W116->Ta82(2.8661914573807445)
No.438:Ta86->Ta83(2.7845273130612824)
No.439:Ta88->Ta83(2.851696345415291)
No.440:Ta90->Ta83(2.8268751108729129)
No.441:W113->Ta83(2.7859005225563189)
No.442:Ta86->Ta84(2.8411050475212036)
No.443:W113->Ta84(2.8146318917633977)
No.444:W114->Ta84(2.7875227144134231)
No.445:W121->Ta84(2.8194460467410427)
No.446:Ta87->Ta85(2.8318008565609185)
No.447:Ta90->Ta85(2.8247213547285388)
No.448:W122->Ta85(2.7743761462843923)
No.449:W123->Ta85(2.7967243184003228)
No.450:Ta91->Ta86(2.8448256030930299)
No.451:Ta92->Ta86(2.7977929773615551)
No.452:W115->Ta86(2.8139373905135119)
No.453:Ta93->Ta87(2.852740021845579)
No.454:W118->Ta87(2.7793902624100864)
No.455:W119->Ta87(2.794010984042715)
No.456:W125->Ta87(2.8231918735462527)
No.457:Ta91->Ta88(2.8411037883284824)
No.458:W115->Ta88(2.8220903910742687)
No.459:W120->Ta88(2.8061794582095456)
No.460:W125->Ta88(2.8514249076801046)
No.461:Ta91->Ta89(2.7975766387276124)
No.462:W115->Ta89(2.8147276948216091)
No.463:W120->Ta89(2.8210266133967323)
No.464:W124->Ta89(2.8334089299912191)
No.465:Ta93->Ta90(2.7941171764845096)
No.466:W116->Ta90(2.8347073744866296)
No.467:W125->Ta90(2.8206234702062098)
No.468:Ta94->Ta91(2.7980294007729807)
No.469:W121->Ta91(2.8285188807104187)
No.470:Ta94->Ta92(2.8531291919160244)
No.471:Ta95->Ta92(2.8777669048389387)
No.472:Ta96->Ta92(2.8553247526482615)
No.473:W121->Ta92(2.8067928528708177)
No.474:W122->Ta93(2.8405416011062372)
No.475:W123->Ta93(2.8003559108082325)
No.476:W127->Ta93(2.7813430287900816)
No.477:W128->Ta93(2.7958946281257897)
No.478:W97->Ta94(2.8327819933110132)
No.479:W98->Ta94(2.7632222127615385)
No.480:W100->Ta94(2.7452441148420985)
No.481:W124->Ta94(2.7896201877338727)
No.482:W99->Ta95(2.8320736758755314)
No.483:W102->Ta95(2.7872873099528146)
No.484:W100->Ta96(2.8334858406775734)
No.485:W102->Ta96(2.8375161733786922)
No.486:W103->Ta96(2.7674303851546278)
No.487:W104->W97(2.7533451923990389)
No.488:W105->W97(2.7773188918580307)
No.489:W106->W97(2.7356891775199199)
No.490:W105->W98(2.7801835898910867)
No.491:W106->W98(2.8083505053027911)
No.492:W107->W98(2.7215922004453659)
No.493:W128->W98(2.7549241886429257)
No.494:W104->W99(2.8295466743074549)
No.495:W126->W99(2.7547248863439666)
No.496:W105->W100(2.7952921911373445)
No.497:W126->W101(2.7090070832000728)
No.498:W109->W105(2.7253209472620568)
No.499:W110->W105(2.7723281098021744)
No.500:W109->W106(2.7704942289790808)
No.501:W109->W107(2.7656845577112144)
No.502:W112->W108(2.8057164305709654)
No.503:W114->W110(2.8089920405254349)
No.504:W114->W111(2.8096876273702738)
No.505:W115->W113(2.7707253187832688)
No.506:W121->W115(2.801303836906011)
No.507:W123->W116(2.7998985676943553)
No.508:W122->W119(2.7761806663667801)
No.509:W124->W121(2.7947054571177472)
No.510:W124->W123(2.7440459060825497)
No.511:W128->W124(2.762229614079788)
No.512:W127->W125(2.7189041972130203)
-10.03344   0.00000  -2.83832   0.00000  -2.56124   0.00000  -1.93025   0.00000  -2.28887   0.00000  -2.67009   0.00000  -2.52339   0.00000  -2.57899   0.00000  -3.24167   0.00000  -2.12745   0.00000  -2.17083   0.00000  -2.30496   0.00000  -2.40485   0.00000  -2.26482   0.00000  -2.43621   0.00000  -2.42730   0.00000  -2.73625   0.00000  -2.49240   0.00000  -2.08300   0.00000  -2.12098   0.00000  -2.31780   0.00000  -2.30698   0.00000  -3.02190   0.00000  -3.09620   0.00000  -2.81242   0.00000  -2.24074   0.00000  -2.48897   0.00000  -2.51070   0.00000  -2.15510   0.00000  -2.09681   0.00000  -2.89522   0.00000  -2.34756   0.00000  -2.96851   0.00000  -2.55168   0.00000  -3.00656   0.00000  -2.81522   0.00000  -2.88821   0.00000  -2.89540   0.00000  -2.71941   0.00000  -3.01564   0.00000  -2.80424   0.00000  -3.06428   0.00000  -2.87742   0.00000  -2.91344   0.00000  -2.77170   0.00000  -3.28398   0.00000  -2.54100   0.00000  -2.59000   0.00000  -2.59499   0.00000  -2.78074   0.00000  -2.74979   0.00000  -2.80227   0.00000  -2.23382   0.00000  -3.23759   0.00000  -2.85641   0.00000  -2.34339   0.00000  -2.27250   0.00000  -2.88422   0.00000  -2.81814   0.00000  -2.45030   0.00000  -3.00223   0.00000  -2.05933   0.00000  -2.32281   0.00000  -2.45631   0.00000  -2.73354   0.00000  -2.75795   0.00000  -2.54717   0.00000  -2.73195   0.00000  -1.88154   0.00000  -2.60265   0.00000  -2.77355   0.00000  -3.00910   0.00000  -2.76178   0.00000  -2.20685   0.00000  -2.19145   0.00000  -2.89398   0.00000  -2.39593   0.00000  -3.13084   0.00000  -2.48870   0.00000  -2.68409   0.00000  -2.82057   0.00000  -2.96464   0.00000  -2.44236   0.00000  -2.73258   0.00000  -2.38146   0.00000  -3.02630   0.00000  -2.73890   0.00000  -2.57703   0.00000  -2.60538   0.00000  -3.08808   0.00000  -3.25869   0.00000  -2.57999   0.00000  -2.98626   0.00000  -2.89635   0.00000  -2.36573   0.00000  -2.49677   0.00000  -3.04638   0.00000  -3.01808   0.00000  -2.93640   0.00000  -2.35202   0.00000  -2.49003   0.00000  -2.64440   0.00000  -2.66278   0.00000  -2.73231   0.00000  -2.61229   0.00000  -3.01254   0.00000  -2.41043   0.00000  -2.30237   0.00000  -2.06414   0.00000  -3.15407   0.00000  -2.86395   0.00000  -1.87667   0.00000  -2.49446   0.00000  -2.73541   0.00000  -2.29952   0.00000  -2.24309   0.00000  -3.02844   0.00000  -2.93331   0.00000  -2.72789   0.00000  -2.17538   0.00000  -2.61914   0.00000  -1.99023   0.00000  -2.27728   0.00000  -2.73766   0.00000  -2.30957   0.00000  -2.99638   0.00000  -3.39190   0.00000  -2.68681   0.00000  -2.55491   0.00000  -2.21704   0.00000  -2.52182   0.00000  -2.55000   0.00000  -2.99144   0.00000  -2.85352   0.00000  -3.03559   0.00000  -2.24934   0.00000  -2.54969   0.00000  -2.97556   0.00000  -2.61473   0.00000  -2.75127   0.00000  -2.78772   0.00000  -2.33449   0.00000  -3.10915   0.00000  -3.04812   0.00000  -2.04919   0.00000  -2.16088   0.00000  -2.53989   0.00000  -2.53758   0.00000  -3.02302   0.00000  -3.01209   0.00000  -2.26429   0.00000  -2.80112   0.00000  -2.34087   0.00000  -2.77564   0.00000  -2.55602   0.00000  -2.57180   0.00000  -2.23014   0.00000  -3.13580   0.00000  -3.52767   0.00000  -2.60339   0.00000  -2.91515   0.00000  -2.71970   0.00000  -3.11802   0.00000  -2.76537   0.00000  -2.43030   0.00000  -2.00161   0.00000  -3.21256   0.00000  -2.68393   0.00000  -2.57597   0.00000  -2.62753   0.00000  -2.86245   0.00000  -1.95680   0.00000  -2.31223   0.00000  -2.63300   0.00000  -2.18558   0.00000  -2.58207   0.00000  -2.77310   0.00000  -2.68027   0.00000  -2.46492   0.00000  -2.90350   0.00000  -2.48639   0.00000  -2.53321   0.00000  -2.76137   0.00000  -3.11661   0.00000  -2.46267   0.00000  -2.41570   0.00000  -3.18959   0.00000  -2.54110   0.00000  -2.84428   0.00000  -2.73111   0.00000  -2.43834   0.00000  -2.90218   0.00000  -2.91262   0.00000  -2.59692   0.00000  -2.69793   0.00000  -3.30472   0.00000  -2.79018   0.00000  -2.45296   0.00000  -2.53504   0.00000  -2.73065   0.00000  -3.14833   0.00000  -2.42187   0.00000  -2.41993   0.00000  -2.71124   0.00000  -2.80413   0.00000  -2.89310   0.00000  -2.63135   0.00000  -2.55498   0.00000  -2.67065   0.00000  -2.80448   0.00000  -2.95829   0.00000  -2.78372   0.00000  -2.92502   0.00000  -2.47373   0.00000  -2.03638   0.00000  -2.44948   0.00000  -3.56335   0.00000  -2.57275   0.00000  -2.73845   0.00000  -2.82262   0.00000  -3.56949   0.00000  -1.95519   0.00000  -2.26271   0.00000  -3.35317   0.00000  -2.94417   0.00000  -3.33429   0.00000  -2.23817   0.00000  -2.52371   0.00000  -2.61839   0.00000  -3.10175   0.00000  -2.80941   0.00000  -3.95945   0.00000  -3.52919   0.00000  -2.32869   0.00000  -2.87306   0.00000  -2.54097   0.00000  -3.52218   0.00000  -3.17468   0.00000  -2.23403   0.00000  -2.28510   0.00000  -3.78007   0.00000  -3.00384   0.00000  -3.33580   0.00000  -2.49743   0.00000  -2.63947   0.00000  -2.73203   0.00000  -3.55508   0.00000  -2.76644   0.00000  -3.15186   0.00000  -3.40047   0.00000  -2.60515   0.00000  -2.75592   0.00000  -2.48262   0.00000  -3.63029   0.00000  -2.61943   0.00000  -2.40437   0.00000  -2.97852   0.00000  -2.60068   0.00000  -2.53539   0.00000  -2.46976   0.00000  -3.04292   0.00000  -3.00450   0.00000  -3.02447   0.00000  -3.92744   0.00000  -2.81022   0.00000  -2.78822   0.00000  -2.84028   0.00000  -3.29272   0.00000  -3.51340   0.00000  -3.26478   0.00000  -2.28052   0.00000  -3.59396   0.00000  -3.57330   0.00000  -3.67644   0.00000  -2.36314   0.00000  -3.05669   0.00000  -2.80416   0.00000  -2.54887   0.00000  -2.97614   0.00000  -3.34329   0.00000  -2.01124   0.00000  -3.31527   0.00000  -3.28518   0.00000  -3.13448   0.00000  -2.66107   0.00000  -2.69246   0.00000  -2.45333   0.00000  -3.94284   0.00000  -3.46444   0.00000  -3.80608   0.00000  -2.69036   0.00000  -2.25633   0.00000  -2.82868   0.00000  -2.99140   0.00000  -2.73814   0.00000  -2.93549   0.00000  -2.79783   0.00000  -2.44893   0.00000  -3.16492   0.00000  -2.53720   0.00000  -2.68724   0.00000  -3.07647   0.00000  -3.19473   0.00000  -3.06571   0.00000  -3.47036   0.00000  -3.65711   0.00000  -2.52661   0.00000  -2.52217   0.00000  -3.86125   0.00000  -3.01570   0.00000  -2.86880   0.00000  -3.57171   0.00000  -2.64808   0.00000  -2.79529   0.00000  -3.48638   0.00000  -2.96543   0.00000  -2.36988   0.00000  -2.81104   0.00000  -2.74046   0.00000  -3.07242   0.00000  -2.28675   0.00000  -3.23005   0.00000  -2.92527   0.00000  -3.19549   0.00000  -3.08792   0.00000  -2.10251   0.00000  -2.17854   0.00000  -2.88768   0.00000  -3.35669   0.00000  -2.13864   0.00000  -1.98025   0.00000  -3.27122   0.00000  -2.40452   0.00000  -2.19780   0.00000  -3.27117   0.00000  -3.19316   0.00000  -2.29385   0.00000  -2.09747   0.00000  -2.97858   0.00000  -2.65815   0.00000  -3.30546   0.00000  -2.02815   0.00000  -3.84851   0.00000  -3.77026   0.00000  -3.06516   0.00000  -2.62797   0.00000  -2.68433   0.00000  -2.72504   0.00000  -2.51311   0.00000  -3.11725   0.00000  -3.23001   0.00000  -3.68486   0.00000  -2.42863   0.00000  -2.90464   0.00000  -3.13487   0.00000  -2.99505   0.00000  -2.38107   0.00000  -3.40895   0.00000  -3.64721   0.00000  -2.36729   0.00000  -2.04229   0.00000  -2.68950   0.00000  -3.24580   0.00000  -2.15466   0.00000  -2.96543   0.00000  -3.02518   0.00000  -3.07310   0.00000  -3.19609   0.00000  -2.83857   0.00000  -2.82485   0.00000  -2.81731   0.00000  -3.35360   0.00000  -3.25115   0.00000  -2.32713   0.00000  -2.76181   0.00000  -2.91210   0.00000  -2.59639   0.00000  -2.98051   0.00000  -2.93804   0.00000  -2.71744   0.00000  -2.98481   0.00000  -2.94966   0.00000  -3.52584   0.00000  -3.10609   0.00000  -3.00611   0.00000  -2.79141   0.00000  -3.09980   0.00000  -3.04024   0.00000  -3.58465   0.00000  -3.21855   0.00000  -2.84699   0.00000  -2.29424   0.00000  -2.96758   0.00000  -3.45321   0.00000  -2.79812   0.00000  -3.55904   0.00000  -2.88803   0.00000  -2.68856   0.00000  -3.04622   0.00000  -3.74938   0.00000  -3.00130   0.00000  -2.66496   0.00000  -2.40764   0.00000  -3.31999   0.00000  -3.25212   0.00000  -2.88461   0.00000  -2.64929   0.00000  -2.99369   0.00000  -3.02105   0.00000  -4.09691   0.00000  -3.55336   0.00000  -3.54437   0.00000  -2.61717   0.00000  -2.85523   0.00000  -2.90930   0.00000  -2.78174   0.00000  -2.98475   0.00000  -2.90260   0.00000  -2.73948   0.00000  -2.97650   0.00000  -3.31456   0.00000  -3.23275   0.00000  -3.03130   0.00000  -3.39647   0.00000  -2.46319   0.00000  -2.79461   0.00000  -3.53089   0.00000  -2.79728   0.00000  -3.07786   0.00000  -2.50564   0.00000  -3.51617   0.00000  -2.64260   0.00000  -2.39531   0.00000  -2.97469   0.00000  -2.57830   0.00000  -2.55852   0.00000  -3.03516   0.00000  -2.57603   0.00000  -3.13299   0.00000  -2.42168   0.00000  -2.76768   0.00000  -2.86250   0.00000  -3.47771   0.00000  -2.86643   0.00000  -3.60306   0.00000  -3.81182   0.00000  -2.97254   0.00000  -2.79317   0.00000  -3.30829   0.00000  -3.45900   0.00000  -3.37080   0.00000  -2.89840   0.00000  -2.69831   0.00000  -3.39313   0.00000  -2.29411   0.00000  -2.82278   0.00000  -2.93791   0.00000  -2.81713   0.00000  -2.78158   0.00000  -3.27884   0.00000  -2.99724   0.00000  -2.76489   0.00000  -3.11599   0.00000  -2.95533   0.00000  -2.39204   0.00000  -2.48963   0.00000  -2.97264   0.00000  -2.99953   0.00000  -3.14084   0.00000  -2.72706   0.00000  -3.06720   0.00000  -3.31408   0.00000  -3.05161   0.00000  -3.08141   0.00000  -3.65317   0.00000  -2.39623   0.00000  -3.16203   0.00000  -3.46346   0.00000  -2.59130   0.00000  -2.62444   0.00000  -3.33395   0.00000  -3.38666   0.00000  -3.11444   0.00000  -2.81854   0.00000  -3.33289   0.00000  -2.97965   0.00000  -2.57003   0.00000  -3.41858   0.00000  -3.26826   0.00000  -3.16055   0.00000  -3.56309   0.00000  -3.09769   0.00000  -2.58077   0.00000  -3.77687   0.00000  -3.34122   0.00000  -2.65449   0.00000  -3.19393   0.00000  -3.14967   0.00000  -3.70256   0.00000  -3.82429   0.00000  -3.39430   0.00000  -2.94488   0.00000  -3.12681   0.00000  -2.53789   0.00000  -3.11571   0.00000  -2.95108   0.00000  -3.83002   0.00000  -3.51475   0.00000  -3.31351   0.00000  -3.24740   0.00000  -3.21674   0.00000  -3.61901   0.00000  -3.21340   0.00000  -4.00786