ESCALE ; pCOHP file generated by LOBSTER. Energy is shifted such that the Fermi level lies at 0 eV.
       513          1        301  -2.79707e-01   1.47705e+01   9.75374e+00 
Average
No.1:Mo6->Mo1(2.8046409019566672)
No.2:Mo9->Mo1(2.7981425873989525)
No.3:Mo30->Mo1(2.7168955530492047)
No.4:Nb39->Mo1(2.7996069853864851)
No.5:Nb40->Mo1(2.7702495784450658)
No.6:Nb64->Mo1(2.817765758237619)
No.7:W125->Mo1(2.7093206689762601)
No.8:W128->Mo1(2.8121544813699453)
No.9:Mo6->Mo2(2.8168614392610327)
No.10:Mo7->Mo2(2.7775973976164861)
No.11:Mo31->Mo2(2.8001784249280073)
No.12:Nb39->Mo2(2.7064682908489579)
No.13:Nb61->Mo2(2.7463691384076023)
No.14:Nb64->Mo2(2.8244581326164404)
No.15:W102->Mo2(2.7436887014606754)
No.16:W125->Mo2(2.7958431623717876)
No.17:Mo7->Mo3(2.793789448760243)
No.18:Mo8->Mo3(2.8047853138758088)
No.19:Mo31->Mo3(2.7982471640283508)
No.20:Mo32->Mo3(2.8128020299694341)
No.21:Nb61->Mo3(2.7614399283942208)
No.22:Nb62->Mo3(2.7925738267397051)
No.23:W102->Mo3(2.7321911947362731)
No.24:W103->Mo3(2.7110750193879731)
No.25:Mo8->Mo4(2.7997665505111673)
No.26:Mo9->Mo4(2.8274692672547315)
No.27:Mo30->Mo4(2.7709986562127842)
No.28:Mo32->Mo4(2.7895375398709006)
No.29:Nb40->Mo4(2.7242693212942579)
No.30:Nb62->Mo4(2.7335102526675894)
No.31:W103->Mo4(2.7619364222645344)
No.32:W128->Mo4(2.8006999381200854)
No.33:Mo31->Mo5(2.7698792756659572)
No.34:Nb38->Mo5(2.8258121530898559)
No.35:Nb39->Mo5(2.7970973945369355)
No.36:Nb63->Mo5(2.7634929087329869)
No.37:Nb64->Mo5(2.8126743967989696)
No.38:W101->Mo5(2.818467929625172)
No.39:W102->Mo5(2.7998171568681429)
No.40:W126->Mo5(2.8070279348063103)
No.41:Mo10->Mo6(2.8092933724103291)
No.42:Nb33->Mo6(2.7251126014843345)
No.43:Nb41->Mo6(2.7289568996815818)
No.44:Nb43->Mo6(2.7834498912868408)
No.45:W97->Mo6(2.7375211222508873)
No.46:W104->Mo6(2.7721081891431405)
No.47:Nb33->Mo7(2.7902123491278559)
No.48:Nb34->Mo7(2.7904753277498524)
No.49:Nb43->Mo7(2.8355194215353756)
No.50:Nb44->Mo7(2.8490736822481106)
No.51:W104->Mo7(2.7191450216629263)
No.52:W105->Mo7(2.7287897007147115)
No.53:Mo11->Mo8(2.8222934345415123)
No.54:Nb34->Mo8(2.7425776983394141)
No.55:Nb35->Mo8(2.7582678736625938)
No.56:Nb42->Mo8(2.7151359043764556)
No.57:Nb44->Mo8(2.7961469124022291)
No.58:W105->Mo8(2.7398958357619816)
No.59:Mo10->Mo9(2.7980170548482506)
No.60:Mo11->Mo9(2.8197227163202276)
No.61:Nb35->Mo9(2.7211530417863359)
No.62:Nb41->Mo9(2.741627932969287)
No.63:Nb42->Mo9(2.7655009346783341)
No.64:W97->Mo9(2.7312756550132571)
No.65:Mo12->Mo10(2.7815793046318875)
No.66:Mo14->Mo10(2.7772966650592905)
No.67:Mo15->Mo10(2.7481131276468784)
No.68:Mo18->Mo10(2.7941461638234317)
No.69:Nb37->Mo10(2.7358944260169165)
No.70:W99->Mo10(2.7528827037188925)
No.71:Mo13->Mo11(2.7467905434420605)
No.72:Mo14->Mo11(2.7592678503382677)
No.73:Mo17->Mo11(2.773374575844926)
No.74:Mo18->Mo11(2.7671330432289469)
No.75:Nb37->Mo11(2.7586043952268589)
No.76:W100->Mo11(2.7671672148221487)
No.77:Nb41->Mo12(2.7328062421339583)
No.78:Nb43->Mo12(2.7791321839180103)
No.79:Nb48->Mo12(2.7516050573446811)
No.80:W104->Mo12(2.8185904186058655)
No.81:W110->Mo12(2.8016313344466321)
No.82:W111->Mo12(2.7977537450020038)
No.83:W113->Mo12(2.7871952080782041)
No.84:Mo19->Mo13(2.7695362888829669)
No.85:Nb42->Mo13(2.7755953872593468)
No.86:Nb44->Mo13(2.7509258417631535)
No.87:Nb47->Mo13(2.8072693641729636)
No.88:W105->Mo13(2.8465766494961917)
No.89:W112->Mo13(2.8206824729755424)
No.90:W114->Mo13(2.7542066120816604)
No.91:Mo19->Mo14(2.7417350406700045)
No.92:Nb41->Mo14(2.7908858052722345)
No.93:Nb42->Mo14(2.8099314398516433)
No.94:W110->Mo14(2.8079200358057559)
No.95:W112->Mo14(2.7669180494355521)
No.96:W113->Mo14(2.7010931150057589)
No.97:Nb43->Mo15(2.8083701123673808)
No.98:Nb48->Mo15(2.7877952648936519)
No.99:Nb49->Mo15(2.7872381702021332)
No.100:W106->Mo15(2.711642992104021)
No.101:W107->Mo15(2.8128468965066116)
No.102:W113->Mo15(2.7896403954552542)
No.103:W115->Mo15(2.7836157017117915)
No.104:Nb43->Mo16(2.8420217874421172)
No.105:Nb44->Mo16(2.8034263877954615)
No.106:Nb48->Mo16(2.8110002127623117)
No.107:Nb49->Mo16(2.7835536670752372)
No.108:W107->Mo16(2.8045167133517692)
No.109:W108->Mo16(2.7509783615354308)
No.110:W114->Mo16(2.7825675062064175)
No.111:W116->Mo16(2.789161267610103)
No.112:Mo19->Mo17(2.7572034147195104)
No.113:Mo20->Mo17(2.7641157792310982)
No.114:Nb44->Mo17(2.7970660865043881)
No.115:W108->Mo17(2.797070533372251)
No.116:W109->Mo17(2.7389553926057104)
No.117:W114->Mo17(2.7396126387548079)
No.118:W116->Mo17(2.7636233253835534)
No.119:Mo19->Mo18(2.7318852530025621)
No.120:Mo20->Mo18(2.7715792458534483)
No.121:W106->Mo18(2.7798009797826295)
No.122:W109->Mo18(2.7583416533521863)
No.123:W113->Mo18(2.7462780183590123)
No.124:W115->Mo18(2.7515800714394021)
No.125:Mo21->Mo19(2.8200238940322104)
No.126:Mo22->Mo19(2.7406421033882848)
No.127:Nb52->Mo19(2.8164576032738249)
No.128:W119->Mo19(2.7729760609705183)
No.129:Mo22->Mo20(2.7157111421526334)
No.130:Mo23->Mo20(2.8190772271659537)
No.131:Nb45->Mo20(2.789323283909217)
No.132:Nb46->Mo20(2.7923378312588465)
No.133:W119->Mo20(2.7199458363284936)
No.134:W120->Mo20(2.8020471176039532)
No.135:Mo27->Mo21(2.8117390264815789)
No.136:Nb58->Mo21(2.7536195562524752)
No.137:Nb59->Mo21(2.76649426327785)
No.138:W110->Mo21(2.7308585264207395)
No.139:W112->Mo21(2.7017292978671783)
No.140:W113->Mo21(2.7934930538580778)
No.141:W121->Mo21(2.7930911131326597)
No.142:Nb58->Mo22(2.8502188081429849)
No.143:Nb59->Mo22(2.7919489186826034)
No.144:Nb60->Mo22(2.8259027471587452)
No.145:W113->Mo22(2.7888035788063639)
No.146:W115->Mo22(2.7381261934438879)
No.147:W122->Mo22(2.7836393483091539)
No.148:Mo28->Mo23(2.785100633790202)
No.149:Nb50->Mo23(2.7370220986769112)
No.150:Nb60->Mo23(2.7427058086233624)
No.151:W115->Mo23(2.8054897042374418)
No.152:W117->Mo23(2.7731035974339746)
No.153:W122->Mo23(2.753113041857993)
No.154:W124->Mo23(2.774504856306379)
No.155:Mo28->Mo24(2.7979616111788834)
No.156:Mo29->Mo24(2.8035090465385557)
No.157:Nb57->Mo24(2.798323152789068)
No.158:W110->Mo24(2.8128878814411906)
No.159:W111->Mo24(2.7915815197312122)
No.160:W117->Mo24(2.7459223087348525)
No.161:W118->Mo24(2.7724210012334307)
No.162:W121->Mo24(2.8057421666755311)
No.163:Mo27->Mo25(2.7562219555296337)
No.164:Mo28->Mo25(2.752915037923688)
No.165:Nb50->Mo25(2.7802860552723381)
No.166:W110->Mo25(2.8013246606509652)
No.167:W112->Mo25(2.8212853427786775)
No.168:W117->Mo25(2.758975258031414)
No.169:W121->Mo25(2.732011512539815)
No.170:W124->Mo25(2.7794169466684275)
No.171:Mo31->Mo26(2.7703963818484918)
No.172:Mo32->Mo26(2.7466752252566042)
No.173:Nb51->Mo26(2.8543473456345967)
No.174:Nb52->Mo26(2.8807303736311525)
No.175:Nb55->Mo26(2.8124781363214622)
No.176:Nb56->Mo26(2.7706269694015742)
No.177:Nb61->Mo26(2.7664551362488266)
No.178:Nb62->Mo26(2.7463327678077309)
No.179:Mo30->Mo27(2.7554205660305997)
No.180:Mo32->Mo27(2.7856438773127907)
No.181:Nb52->Mo27(2.8408499996986665)
No.182:Nb56->Mo27(2.7543185262164864)
No.183:Nb62->Mo27(2.769004356828515)
No.184:W128->Mo27(2.7140600638901908)
No.185:Nb53->Mo28(2.7950133354781861)
No.186:Nb64->Mo28(2.7958105537244085)
No.187:W126->Mo28(2.7766477664408997)
No.188:W127->Mo28(2.7639019767415274)
No.189:W128->Mo28(2.767591542003899)
No.190:Mo31->Mo29(2.8095234244599294)
No.191:Nb53->Mo29(2.8067590231352129)
No.192:Nb54->Mo29(2.8131481137352128)
No.193:Nb55->Mo29(2.7880171048982438)
No.194:Nb63->Mo29(2.7580075397310435)
No.195:Nb64->Mo29(2.7639516270664193)
No.196:W126->Mo29(2.7327244907271995)
No.197:Nb35->Mo30(2.8183101914547533)
No.198:Nb58->Mo30(2.7822451185534889)
No.199:Nb59->Mo30(2.843004086884227)
No.200:W97->Mo30(2.8170835536088896)
No.201:W121->Mo30(2.7515159321090357)
No.202:Nb36->Mo31(2.7459075013288765)
No.203:Nb57->Mo31(2.7883295667455381)
No.204:W123->Mo31(2.8042486493927052)
No.205:Nb36->Mo32(2.7885142141601946)
No.206:W98->Mo32(2.7493123390142191)
No.207:W123->Mo32(2.7747580907640885)
No.208:W124->Mo32(2.7990499080307676)
No.209:Nb61->Nb33(2.8495408540670124)
No.210:Ta70->Nb33(2.8477677423334291)
No.211:Ta92->Nb33(2.8399758480207251)
No.212:Ta93->Nb33(2.8539150809439162)
No.213:W99->Nb33(2.8181482642209175)
No.214:W125->Nb33(2.8088453403063078)
No.215:Nb61->Nb34(2.8399569110849803)
No.216:Nb62->Nb34(2.8459665970645518)
No.217:Ta70->Nb34(2.8400023902065454)
No.218:Ta93->Nb34(2.8479772452601799)
No.219:Ta94->Nb34(2.8748558830809854)
No.220:W100->Nb34(2.833448558481555)
No.221:Nb37->Nb35(2.8202902623151149)
No.222:Nb62->Nb35(2.8404172421634488)
No.223:Ta94->Nb35(2.8606507858786387)
No.224:Ta95->Nb35(2.8391159874828999)
No.225:W100->Nb35(2.8523561342358059)
No.226:Nb63->Nb36(2.8027776101566491)
No.227:Ta71->Nb36(2.8538951822880909)
No.228:Ta96->Nb36(2.8491297522234702)
No.229:W101->Nb36(2.8355272430360374)
No.230:W102->Nb36(2.7729585254314788)
No.231:W103->Nb36(2.7751170119484145)
No.232:Ta65->Nb37(2.8712708503108639)
No.233:Ta68->Nb37(2.83733197245685)
No.234:W97->Nb37(2.8258615669339036)
No.235:W106->Nb37(2.7718244473457778)
No.236:W109->Nb37(2.7908555487085258)
No.237:Ta65->Nb38(2.8023484252875108)
No.238:Ta66->Nb38(2.7773812196306205)
No.239:Ta69->Nb38(2.8449000525857997)
No.240:Ta73->Nb38(2.8018479371635725)
No.241:Ta74->Nb38(2.7897600475354145)
No.242:W106->Nb38(2.8374513291114924)
No.243:W107->Nb38(2.7913281672481016)
No.244:Nb41->Nb39(2.8651972376355093)
No.245:Ta69->Nb39(2.8609636003863415)
No.246:Ta73->Nb39(2.863386988966508)
No.247:Ta74->Nb39(2.8240684294579772)
No.248:W104->Nb39(2.7722687817053364)
No.249:Nb41->Nb40(2.8697367137405152)
No.250:Nb42->Nb40(2.83158588442293)
No.251:Ta69->Nb40(2.8300473402478188)
No.252:Ta73->Nb40(2.849837777631707)
No.253:Ta76->Nb40(2.8414993831768238)
No.254:W98->Nb40(2.7863834327697967)
No.255:Ta80->Nb41(2.8685307558021713)
No.256:Ta83->Nb41(2.857286374071204)
No.257:Ta82->Nb42(2.8175997719347641)
No.258:Ta83->Nb42(2.8801511667269808)
No.259:W103->Nb42(2.8367956163062238)
No.260:Ta70->Nb43(2.8023581544561726)
No.261:Ta77->Nb43(2.8273009947977221)
No.262:W99->Nb43(2.7645043911620806)
No.263:Ta70->Nb44(2.8113717838238927)
No.264:Ta77->Nb44(2.8130276815866511)
No.265:W100->Nb44(2.7588245982809729)
No.266:Nb50->Nb45(2.8686943558678033)
No.267:Ta75->Nb45(2.8839900658136601)
No.268:Ta76->Nb45(2.854039898268022)
No.269:Ta84->Nb45(2.8169447914253474)
No.270:W108->Nb45(2.7919205126797979)
No.271:W109->Nb45(2.7765742356795848)
No.272:W116->Nb45(2.7496718190034173)
No.273:Nb50->Nb46(2.8244408250157136)
No.274:Ta73->Nb46(2.8604900270054494)
No.275:Ta76->Nb46(2.8759800485006317)
No.276:W106->Nb46(2.8088297552692292)
No.277:W109->Nb46(2.8163975281171036)
No.278:W115->Nb46(2.738796988120511)
No.279:W117->Nb46(2.8311131317723945)
No.280:Nb51->Nb47(2.7587568125702253)
No.281:Nb52->Nb47(2.7738319321456735)
No.282:Nb55->Nb47(2.8763816759411429)
No.283:Nb56->Nb47(2.8385386451157464)
No.284:Ta77->Nb47(2.8008376467598874)
No.285:Ta81->Nb47(2.821035369833325)
No.286:Ta82->Nb47(2.7575482911878559)
No.287:Nb51->Nb48(2.8784114828101126)
No.288:Ta77->Nb48(2.8030738719417196)
No.289:Ta85->Nb48(2.8548318210021328)
No.290:Ta86->Nb48(2.8169425765804785)
No.291:Ta87->Nb48(2.8395402065338295)
No.292:Nb53->Nb49(2.8668461588500445)
No.293:Nb54->Nb49(2.8555641550074391)
No.294:Ta78->Nb49(2.7814043372835409)
No.295:Ta79->Nb49(2.7882352025811179)
No.296:Ta86->Nb49(2.8101826603869262)
No.297:Ta87->Nb49(2.7978415953090474)
No.298:Nb56->Nb50(2.8072596499729636)
No.299:Ta82->Nb50(2.877564380634805)
No.300:Ta83->Nb50(2.8438916205408447)
No.301:W120->Nb50(2.7708494192771607)
No.302:Nb57->Nb51(2.8633026807238178)
No.303:Ta88->Nb51(2.8365260902717484)
No.304:Ta89->Nb51(2.8268940108524658)
No.305:W111->Nb51(2.7905183587904605)
No.306:W114->Nb51(2.8755546563928682)
No.307:Nb59->Nb52(2.7599565871775273)
No.308:Ta89->Nb52(2.8050009823319484)
No.309:W112->Nb52(2.7460913665149769)
No.310:W114->Nb52(2.8363920229990467)
No.311:Nb60->Nb53(2.8055065351881021)
No.312:Ta90->Nb53(2.8426602257698987)
No.313:W115->Nb53(2.8523125462767318)
No.314:W117->Nb53(2.7374263320026149)
No.315:W118->Nb53(2.7769164456654312)
No.316:Ta84->Nb54(2.7781252898742022)
No.317:Ta90->Nb54(2.839264920411968)
No.318:Ta91->Nb54(2.8233195986021542)
No.319:W116->Nb54(2.8625902772896121)
No.320:W118->Nb54(2.7814450039255685)
No.321:W123->Nb54(2.8320102119415549)
No.322:Nb57->Nb55(2.7885885734254856)
No.323:Ta84->Nb55(2.8284149198194823)
No.324:W111->Nb55(2.8541830786673041)
No.325:W118->Nb55(2.7981662485029926)
No.326:W123->Nb55(2.8017890299768324)
No.327:Ta84->Nb56(2.8403430680764852)
No.328:W112->Nb56(2.8632911176136577)
No.329:W123->Nb56(2.7875235768174345)
No.330:W124->Nb56(2.7808303721359087)
No.331:Nb61->Nb57(2.798242998908703)
No.332:Nb64->Nb57(2.7300408968700136)
No.333:Ta85->Nb57(2.8552747430206766)
No.334:W125->Nb57(2.8001017056648094)
No.335:Ta85->Nb58(2.7900240532675027)
No.336:Ta86->Nb58(2.831129591125352)
No.337:Ta92->Nb58(2.8213332964312183)
No.338:Ta95->Nb58(2.7923912307311221)
No.339:W125->Nb58(2.8330402077183199)
No.340:Nb62->Nb59(2.8669984286071939)
No.341:Ta94->Nb59(2.819303445387439)
No.342:Ta95->Nb59(2.807209082770608)
No.343:W119->Nb59(2.8299041668884466)
No.344:Ta86->Nb60(2.833951125064059)
No.345:Ta92->Nb60(2.8695338038796114)
No.346:Ta95->Nb60(2.821860050036205)
No.347:W126->Nb60(2.8321238527114811)
No.348:W127->Nb60(2.7812536641913179)
No.349:Ta88->Nb61(2.8476378667070548)
No.350:Ta89->Nb61(2.8884522301984137)
No.351:Ta89->Nb62(2.862485773049158)
No.352:Ta66->Nb63(2.8553968302415802)
No.353:Ta67->Nb63(2.863773155414016)
No.354:Ta90->Nb63(2.8252751146632189)
No.355:Ta91->Nb63(2.8718952101021582)
No.356:W123->Nb63(2.7739340991267438)
No.357:Ta69->Nb64(2.7868023745476362)
No.358:W121->Nb64(2.7991845613175919)
No.359:Ta72->Ta65(2.8287515753870363)
No.360:Ta92->Ta65(2.8026890502271766)
No.361:Ta95->Ta65(2.8416888086911776)
No.362:W99->Ta65(2.8219455044893098)
No.363:W126->Ta65(2.8312212287338405)
No.364:W127->Ta65(2.8512732006035715)
No.365:Ta70->Ta66(2.8432767332562614)
No.366:Ta92->Ta66(2.8584330165597809)
No.367:Ta93->Ta66(2.8557473044412172)
No.368:W99->Ta66(2.8357939714273468)
No.369:W101->Ta66(2.8113422898181564)
No.370:W126->Ta66(2.8364187600539026)
No.371:Ta70->Ta67(2.810738348789485)
No.372:Ta71->Ta67(2.805286800076606)
No.373:Ta93->Ta67(2.829470492657963)
No.374:Ta94->Ta67(2.8617676430125303)
No.375:Ta96->Ta67(2.8668778016203675)
No.376:W100->Ta67(2.8403098132101547)
No.377:W101->Ta67(2.7934255086943551)
No.378:Ta71->Ta68(2.8109960830051386)
No.379:Ta72->Ta68(2.7982112695914747)
No.380:Ta94->Ta68(2.7969887221074821)
No.381:Ta95->Ta68(2.8107824474013214)
No.382:Ta96->Ta68(2.8428592775536714)
No.383:W100->Ta68(2.8237974912542234)
No.384:W127->Ta68(2.8390880031908874)
No.385:Ta72->Ta69(2.8601351984432348)
No.386:W126->Ta69(2.7734752092152433)
No.387:W127->Ta69(2.7895904758836703)
No.388:W128->Ta69(2.798186755034247)
No.389:W107->Ta70(2.7671857456771951)
No.390:W108->Ta70(2.7802138991406147)
No.391:Ta75->Ta71(2.8178694994217617)
No.392:Ta76->Ta71(2.8057954174154469)
No.393:W98->Ta71(2.8369801324276769)
No.394:W108->Ta71(2.834703276021493)
No.395:W109->Ta71(2.8273476501559878)
No.396:Ta73->Ta72(2.8133475951857201)
No.397:Ta76->Ta72(2.8096672613035358)
No.398:W98->Ta72(2.8442495348187866)
No.399:W106->Ta72(2.8412251123121299)
No.400:W109->Ta72(2.8183008468963653)
No.401:Ta78->Ta73(2.842098458718854)
No.402:Ta80->Ta73(2.8324972177285237)
No.403:Ta83->Ta73(2.8437387315116713)
No.404:Ta78->Ta74(2.8710566590877922)
No.405:Ta79->Ta74(2.832214288998649)
No.406:Ta80->Ta74(2.8661745205332023)
No.407:Ta81->Ta74(2.8185414863735097)
No.408:W101->Ta74(2.7649559208296246)
No.409:W102->Ta74(2.7907374251847519)
No.410:Ta79->Ta75(2.8587706910467761)
No.411:Ta81->Ta75(2.8437305177546808)
No.412:Ta82->Ta75(2.863997087685481)
No.413:W101->Ta75(2.7900051127225436)
No.414:W102->Ta75(2.8014743837988134)
No.415:W103->Ta75(2.8100619370903961)
No.416:Ta82->Ta76(2.8045629166691728)
No.417:Ta83->Ta76(2.8591289584901332)
No.418:W103->Ta76(2.8238273444650077)
No.419:W104->Ta77(2.7871654884441663)
No.420:W105->Ta77(2.8002379941871007)
No.421:W111->Ta77(2.8256046614319672)
No.422:W114->Ta77(2.837706226971497)
No.423:W106->Ta78(2.8209757694125388)
No.424:W107->Ta78(2.8367208255092153)
No.425:W115->Ta78(2.8311964018502929)
No.426:W117->Ta78(2.8387157719006622)
No.427:W118->Ta78(2.8022899611842744)
No.428:Ta84->Ta79(2.8426401347359098)
No.429:W107->Ta79(2.8112991260216447)
No.430:W108->Ta79(2.810927365422986)
No.431:W116->Ta79(2.8242878065544175)
No.432:W118->Ta79(2.8326134421613651)
No.433:W104->Ta80(2.8525779581125184)
No.434:W110->Ta80(2.8096454566882039)
No.435:W111->Ta80(2.7412707182772578)
No.436:W117->Ta80(2.8291240684286683)
No.437:W118->Ta80(2.7911969494579232)
No.438:Ta84->Ta81(2.8843253708196217)
No.439:W104->Ta81(2.8082194389827473)
No.440:W105->Ta81(2.8509581435350198)
No.441:W111->Ta81(2.7802302545357347)
No.442:W118->Ta81(2.8220180511724458)
No.443:Ta84->Ta82(2.8538683261700726)
No.444:W105->Ta82(2.8288119521840858)
No.445:W112->Ta82(2.8124071608972092)
No.446:W110->Ta83(2.7448542245489)
No.447:W112->Ta83(2.7618562662712862)
No.448:W117->Ta83(2.8017045950759667)
No.449:W120->Ta84(2.7971722558900503)
No.450:Ta88->Ta85(2.8337826898702545)
No.451:W110->Ta85(2.7173704769447888)
No.452:W111->Ta85(2.7668548111064379)
No.453:W113->Ta85(2.8376508127727078)
No.454:W121->Ta85(2.7997680161435436)
No.455:Ta88->Ta86(2.8790464832286653)
No.456:Ta90->Ta86(2.8677725549522219)
No.457:W113->Ta86(2.7938864386536482)
No.458:W115->Ta86(2.7750213291036983)
No.459:Ta88->Ta87(2.8810765163768504)
No.460:Ta89->Ta87(2.8223900029841129)
No.461:Ta90->Ta87(2.8779498329889734)
No.462:Ta91->Ta87(2.8177917021697154)
No.463:W114->Ta87(2.7916392910854788)
No.464:W116->Ta87(2.7862059245783741)
No.465:Ta92->Ta88(2.8165163348821136)
No.466:Ta93->Ta88(2.8170159620599429)
No.467:W125->Ta88(2.8214707723714372)
No.468:Ta93->Ta89(2.8221218986017127)
No.469:Ta94->Ta89(2.8141118374060636)
No.470:W119->Ta89(2.8358720128911834)
No.471:Ta92->Ta90(2.835938524879241)
No.472:Ta93->Ta90(2.8457257552133677)
No.473:W126->Ta90(2.7793564738271361)
No.474:Ta93->Ta91(2.8664768854633005)
No.475:Ta94->Ta91(2.8261657031926348)
No.476:Ta96->Ta91(2.8309925292557985)
No.477:W119->Ta91(2.8098570157590212)
No.478:W120->Ta91(2.7676655506416421)
No.479:W97->Ta92(2.7934953882080475)
No.480:W122->Ta94(2.8214746485254132)
No.481:W97->Ta95(2.8374629159137341)
No.482:W122->Ta95(2.8440293735783926)
No.483:W98->Ta96(2.7841750783522583)
No.484:W122->Ta96(2.8186530403118164)
No.485:W123->Ta96(2.7614205909576652)
No.486:W124->Ta96(2.7709573146049102)
No.487:W99->W97(2.8075117811053354)
No.488:W125->W97(2.7848385321359368)
No.489:W103->W98(2.8093198149135734)
No.490:W127->W98(2.792106064591434)
No.491:W128->W98(2.7737276945529428)
No.492:W106->W99(2.7674454347741699)
No.493:W107->W99(2.7840711430304865)
No.494:W108->W100(2.7687078548873458)
No.495:W109->W100(2.750043799984383)
No.496:W107->W101(2.7974565971257528)
No.497:W108->W101(2.8152687510035892)
No.498:W104->W102(2.7936650158677323)
No.499:W105->W102(2.791049455192725)
No.500:W105->W103(2.7766006854385572)
No.501:W119->W114(2.762776334436055)
No.502:W119->W116(2.7446275864683378)
No.503:W120->W116(2.8248435084874362)
No.504:W122->W119(2.8049885770528951)
No.505:W122->W120(2.732338260873278)
No.506:W123->W120(2.8136408518284401)
No.507:W124->W120(2.8004996473932944)
No.508:W125->W121(2.8025676384969116)
No.509:W128->W121(2.751080297581479)
No.510:W127->W122(2.7980271779147889)
No.511:W127->W124(2.7283555943727942)
No.512:W128->W124(2.7557626847157972)
-10.03344   0.00000  -2.81651   0.00000  -2.10942   0.00000  -2.07204   0.00000  -2.79962   0.00000  -2.45380   0.00000  -2.87024   0.00000  -2.46354   0.00000  -3.34502   0.00000  -2.38454   0.00000  -1.90108   0.00000  -2.27117   0.00000  -2.07297   0.00000  -3.24984   0.00000  -2.90566   0.00000  -2.24144   0.00000  -2.97751   0.00000  -2.43167   0.00000  -2.10936   0.00000  -1.93456   0.00000  -2.04081   0.00000  -2.02766   0.00000  -2.75456   0.00000  -2.57773   0.00000  -2.95090   0.00000  -3.22701   0.00000  -2.00578   0.00000  -1.79939   0.00000  -2.32169   0.00000  -2.17720   0.00000  -3.16926   0.00000  -3.09398   0.00000  -2.68462   0.00000  -2.34609   0.00000  -2.34408   0.00000  -2.81310   0.00000  -2.87146   0.00000  -3.11139   0.00000  -2.74388   0.00000  -2.65956   0.00000  -2.57907   0.00000  -2.78026   0.00000  -1.91796   0.00000  -3.07986   0.00000  -3.07596   0.00000  -2.51842   0.00000  -3.00775   0.00000  -2.65954   0.00000  -2.76622   0.00000  -2.76881   0.00000  -2.41582   0.00000  -2.38889   0.00000  -3.31834   0.00000  -3.33542   0.00000  -1.79313   0.00000  -3.02068   0.00000  -2.76664   0.00000  -3.28340   0.00000  -2.42680   0.00000  -3.01722   0.00000  -1.94751   0.00000  -1.82455   0.00000  -3.12169   0.00000  -2.95531   0.00000  -2.71064   0.00000  -3.12703   0.00000  -2.25584   0.00000  -2.28852   0.00000  -2.43579   0.00000  -2.03143   0.00000  -2.75001   0.00000  -2.64596   0.00000  -2.52674   0.00000  -2.37903   0.00000  -2.20831   0.00000  -2.23675   0.00000  -2.61426   0.00000  -2.59459   0.00000  -3.29948   0.00000  -2.74702   0.00000  -3.13977   0.00000  -2.49825   0.00000  -2.66068   0.00000  -2.82269   0.00000  -2.63324   0.00000  -2.30167   0.00000  -2.92821   0.00000  -2.97216   0.00000  -2.75284   0.00000  -2.26236   0.00000  -2.32996   0.00000  -2.88063   0.00000  -2.56072   0.00000  -2.68857   0.00000  -2.56783   0.00000  -2.32008   0.00000  -2.71487   0.00000  -3.27599   0.00000  -2.61826   0.00000  -2.92512   0.00000  -2.95423   0.00000  -3.44797   0.00000  -2.58585   0.00000  -2.55381   0.00000  -2.79469   0.00000  -2.67855   0.00000  -2.99424   0.00000  -2.86153   0.00000  -3.32916   0.00000  -2.84025   0.00000  -3.24578   0.00000  -2.91251   0.00000  -2.88182   0.00000  -2.30163   0.00000  -2.18589   0.00000  -2.46384   0.00000  -2.30896   0.00000  -2.76525   0.00000  -2.94281   0.00000  -2.60010   0.00000  -2.51148   0.00000  -2.12236   0.00000  -2.46498   0.00000  -2.60371   0.00000  -2.86655   0.00000  -2.67938   0.00000  -1.95937   0.00000  -2.51656   0.00000  -2.35814   0.00000  -2.57678   0.00000  -2.68518   0.00000  -1.85622   0.00000  -2.43431   0.00000  -2.55688   0.00000  -3.16574   0.00000  -2.29606   0.00000  -2.02699   0.00000  -3.02171   0.00000  -2.80327   0.00000  -3.23621   0.00000  -3.43713   0.00000  -2.50083   0.00000  -2.54445   0.00000  -2.31691   0.00000  -2.81109   0.00000  -2.64931   0.00000  -2.60519   0.00000  -3.14517   0.00000  -2.70341   0.00000  -2.07310   0.00000  -2.99640   0.00000  -3.04998   0.00000  -2.33201   0.00000  -2.62753   0.00000  -2.91804   0.00000  -2.44837   0.00000  -2.16461   0.00000  -2.07225   0.00000  -2.68646   0.00000  -2.62285   0.00000  -2.77085   0.00000  -3.09746   0.00000  -2.79708   0.00000  -2.48134   0.00000  -2.39385   0.00000  -2.35847   0.00000  -2.73550   0.00000  -2.60753   0.00000  -2.26013   0.00000  -2.77258   0.00000  -3.04808   0.00000  -2.47497   0.00000  -2.28374   0.00000  -2.53404   0.00000  -2.36784   0.00000  -2.09549   0.00000  -2.50148   0.00000  -2.87141   0.00000  -2.94828   0.00000  -3.03438   0.00000  -2.36052   0.00000  -2.10918   0.00000  -2.30996   0.00000  -2.66230   0.00000  -2.65574   0.00000  -3.13281   0.00000  -2.75825   0.00000  -2.59546   0.00000  -2.54509   0.00000  -2.67594   0.00000  -2.70805   0.00000  -2.02547   0.00000  -2.60960   0.00000  -2.61499   0.00000  -2.71737   0.00000  -2.93204   0.00000  -2.88212   0.00000  -3.12979   0.00000  -2.53045   0.00000  -2.74492   0.00000  -2.32469   0.00000  -2.34611   0.00000  -2.72157   0.00000  -2.93598   0.00000  -2.49147   0.00000  -2.41062   0.00000  -2.76442   0.00000  -2.98144   0.00000  -2.80380   0.00000  -2.37845   0.00000  -2.98238   0.00000  -2.27937   0.00000  -2.87897   0.00000  -2.87866   0.00000  -3.15678   0.00000  -3.08623   0.00000  -3.30425   0.00000  -2.96334   0.00000  -2.41864   0.00000  -2.55139   0.00000  -2.49311   0.00000  -3.15783   0.00000  -3.30256   0.00000  -3.02890   0.00000  -2.36929   0.00000  -2.30636   0.00000  -2.71603   0.00000  -3.30228   0.00000  -2.45971   0.00000  -2.21551   0.00000  -3.17548   0.00000  -3.23738   0.00000  -3.37532   0.00000  -2.60111   0.00000  -2.25761   0.00000  -2.98702   0.00000  -3.53853   0.00000  -3.28140   0.00000  -2.85067   0.00000  -2.75980   0.00000  -2.74788   0.00000  -2.99360   0.00000  -2.75557   0.00000  -3.02762   0.00000  -3.58767   0.00000  -2.77777   0.00000  -2.23723   0.00000  -2.70460   0.00000  -2.30573   0.00000  -3.42435   0.00000  -2.94915   0.00000  -3.15642   0.00000  -2.47160   0.00000  -2.61109   0.00000  -2.46400   0.00000  -3.62141   0.00000  -2.28847   0.00000  -2.33695   0.00000  -2.31014   0.00000  -2.28245   0.00000  -2.87044   0.00000  -2.42058   0.00000  -2.39985   0.00000  -3.45057   0.00000  -2.41949   0.00000  -2.47072   0.00000  -3.58091   0.00000  -2.92764   0.00000  -2.81854   0.00000  -2.70533   0.00000  -2.72768   0.00000  -3.61555   0.00000  -3.42094   0.00000  -3.95004   0.00000  -3.50194   0.00000  -3.02143   0.00000  -2.29439   0.00000  -3.45173   0.00000  -3.18683   0.00000  -3.89558   0.00000  -3.02397   0.00000  -3.75357   0.00000  -3.52115   0.00000  -2.82924   0.00000  -3.12022   0.00000  -2.59163   0.00000  -3.19866   0.00000  -2.98953   0.00000  -3.32976   0.00000  -2.22554   0.00000  -2.28209   0.00000  -2.50733   0.00000  -2.38263   0.00000  -3.22289   0.00000  -3.60771   0.00000  -2.67356   0.00000  -2.90786   0.00000  -2.72823   0.00000  -2.64977   0.00000  -3.37745   0.00000  -2.45680   0.00000  -2.32736   0.00000  -3.51966   0.00000  -3.16679   0.00000  -2.82703   0.00000  -2.51269   0.00000  -3.38173   0.00000  -2.77785   0.00000  -3.88203   0.00000  -2.22744   0.00000  -3.46310   0.00000  -2.78222   0.00000  -3.55446   0.00000  -2.51209   0.00000  -2.65867   0.00000  -3.88380   0.00000  -3.68301   0.00000  -2.62728   0.00000  -2.42494   0.00000  -3.04197   0.00000  -2.96509   0.00000  -3.52966   0.00000  -3.12711   0.00000  -3.27123   0.00000  -2.28160   0.00000  -2.70022   0.00000  -3.17955   0.00000  -3.12850   0.00000  -2.27071   0.00000  -2.49735   0.00000  -3.37020   0.00000  -3.25764   0.00000  -3.26673   0.00000  -3.75624   0.00000  -2.10145   0.00000  -3.00866   0.00000  -2.61454   0.00000  -2.82173   0.00000  -3.02832   0.00000  -2.28069   0.00000  -2.94358   0.00000  -2.67981   0.00000  -2.82658   0.00000  -2.61260   0.00000  -2.95119   0.00000  -2.39557   0.00000  -2.99888   0.00000  -2.61503   0.00000  -3.02591   0.00000  -3.46821   0.00000  -2.27526   0.00000  -2.29553   0.00000  -2.25004   0.00000  -2.57665   0.00000  -2.67112   0.00000  -2.39629   0.00000  -2.66940   0.00000  -3.64486   0.00000  -2.61432   0.00000  -2.76598   0.00000  -2.26075   0.00000  -2.63280   0.00000  -2.92080   0.00000  -3.22793   0.00000  -3.36876   0.00000  -2.96312   0.00000  -2.66247   0.00000  -2.83770   0.00000  -3.07075   0.00000  -2.64411   0.00000  -3.32186   0.00000  -2.78383   0.00000  -2.99615   0.00000  -2.51302   0.00000  -2.83210   0.00000  -2.88987   0.00000  -2.86528   0.00000  -3.11335   0.00000  -3.77908   0.00000  -2.63838   0.00000  -2.51114   0.00000  -2.73697   0.00000  -2.80139   0.00000  -3.13409   0.00000  -3.30697   0.00000  -3.08602   0.00000  -2.56808   0.00000  -3.30765   0.00000  -3.00743   0.00000  -2.69463   0.00000  -3.38532   0.00000  -3.26022   0.00000  -2.38977   0.00000  -2.51986   0.00000  -3.18014   0.00000  -2.89996   0.00000  -2.74798   0.00000  -2.54844   0.00000  -2.50445   0.00000  -3.22129   0.00000  -2.89072   0.00000  -2.88044   0.00000  -2.98932   0.00000  -3.06583   0.00000  -2.79991   0.00000  -2.47720   0.00000  -3.06129   0.00000  -2.50073   0.00000  -3.05631   0.00000  -3.55731   0.00000  -2.96402   0.00000  -3.30798   0.00000  -2.89081   0.00000  -2.70652   0.00000  -3.55684   0.00000  -3.11835   0.00000  -2.82883   0.00000  -3.15372   0.00000  -2.72174   0.00000  -2.99266   0.00000  -2.86134   0.00000  -2.72135   0.00000  -2.52086   0.00000  -2.41249   0.00000  -2.94299   0.00000  -2.97531   0.00000  -2.55906   0.00000  -2.45929   0.00000  -3.02240   0.00000  -2.81954   0.00000  -3.13829   0.00000  -3.04890   0.00000  -3.02023   0.00000  -2.85590   0.00000  -2.65603   0.00000  -3.18317   0.00000  -3.79945   0.00000  -2.87424   0.00000  -3.40099   0.00000  -2.42196   0.00000  -3.29317   0.00000  -3.17537   0.00000  -3.61692   0.00000  -3.36383   0.00000  -2.91966   0.00000  -2.93939   0.00000  -2.86827   0.00000  -3.38542   0.00000  -3.36098   0.00000  -3.06895   0.00000  -2.98805   0.00000  -2.71005   0.00000  -3.68524   0.00000  -3.35574   0.00000  -2.45297   0.00000  -2.70602   0.00000  -3.07802   0.00000  -2.54239   0.00000  -2.83486   0.00000  -3.43828   0.00000  -2.99593   0.00000  -2.87324   0.00000  -2.73895   0.00000  -2.71500   0.00000  -2.93889   0.00000  -3.45801   0.00000  -2.84417   0.00000  -2.68868   0.00000  -2.84623   0.00000  -3.11107   0.00000  -2.86493   0.00000  -2.66247   0.00000  -3.25763   0.00000  -3.21678   0.00000  -3.20183   0.00000  -3.59889   0.00000  -2.95237   0.00000  -2.88423   0.00000  -3.00092   0.00000  -3.95341   0.00000  -3.21900   0.00000  -3.14121   0.00000  -2.57345   0.00000  -2.65623   0.00000  -3.27365   0.00000  -2.94469   0.00000  -3.21926   0.00000  -2.67928   0.00000  -2.73055   0.00000  -3.16794   0.00000  -2.90906   0.00000  -3.40112   0.00000  -3.20434   0.00000  -3.37470   0.00000  -3.11641   0.00000  -3.42493   0.00000  -3.56145   0.00000  -3.33651   0.00000  -3.12836   0.00000  -2.97632   0.00000  -2.93891   0.00000  -3.16399   0.00000  -3.24493   0.00000  -3.61989   0.00000  -2.74696   0.00000  -3.01187   0.00000  -3.94922   0.00000  -2.72270   0.00000  -2.78876   0.00000  -2.73111   0.00000  -3.17934   0.00000  -3.18908   0.00000  -3.63943   0.00000  -3.10691