ESCALE ; pCOHP file generated by LOBSTER. Energy is shifted such that the Fermi level lies at 0 eV.
         2          2        321  -1.56533e+00   1.44848e+01   8.46602e+00 
Average
No.1:Ni2->Fe1(2.5137646071181767)
-10.03135   0.00000  -0.00000   0.00000  -0.00000   0.00000  -0.00000   0.00000  -0.00000
 -9.98119  -0.00000  -0.00000  -0.00000  -0.00000  -0.00000  -0.00000  -0.00000  -0.00000
 -9.93103  -0.00000  -0.00000  -0.00000  -0.00000  -0.00000  -0.00000  -0.00000  -0.00000
 -9.88088  -0.00000  -0.00000  -0.00000  -0.00000  -0.00000  -0.00000  -0.00000  -0.00000
 -9.83072  -0.00000  -0.00000  -0.00000  -0.00000  -0.00000  -0.00000  -0.00000  -0.00000
 -9.78056  -0.00000  -0.00000  -0.00000  -0.00000  -0.00000  -0.00000  -0.00000  -0.00000
 -9.73041  -0.00000  -0.00000  -0.00000  -0.00000  -0.00000  -0.00000  -0.00000  -0.00000
 -9.68025  -0.00000  -0.00000  -0.00000  -0.00000  -0.00000  -0.00000  -0.00000  -0.00000
 -9.63009  -0.00000  -0.00000  -0.00000  -0.00000  -0.00000  -0.00000  -0.00000  -0.00000
 -9.57994  -0.00000  -0.00000  -0.00000  -0.00000  -0.00000  -0.00000  -0.00000  -0.00000
 -9.52978  -0.00000  -0.00000  -0.00000  -0.00000  -0.00000  -0.00000  -0.00000  -0.00000
 -9.47962  -0.00001  -0.00000  -0.00001  -0.00000  -0.00000  -0.00000  -0.00000  -0.00000
 -9.42947  -0.00003  -0.00000  -0.00003  -0.00000  -0.00001  -0.00000  -0.00001  -0.00000
 -9.37931  -0.00007  -0.00001  -0.00007  -0.00001  -0.00002  -0.00000  -0.00002  -0.00000
 -9.32915  -0.00018  -0.00001  -0.00018  -0.00001  -0.00006  -0.00000  -0.00006  -0.00000
 -9.27900  -0.00038  -0.00003  -0.00038  -0.00003  -0.00015  -0.00001  -0.00015  -0.00001
 -9.22884  -0.00074  -0.00007  -0.00074  -0.00007  -0.00032  -0.00003  -0.00032  -0.00003
 -9.17868  -0.00127  -0.00013  -0.00127  -0.00013  -0.00060  -0.00006  -0.00060  -0.00006
 -9.12853  -0.00191  -0.00023  -0.00191  -0.00023  -0.00099  -0.00011  -0.00099  -0.00011
 -9.07837  -0.00255  -0.00036  -0.00255  -0.00036  -0.00144  -0.00018  -0.00144  -0.00018
 -9.02821  -0.00301  -0.00051  -0.00301  -0.00051  -0.00185  -0.00027  -0.00185  -0.00027
 -8.97806  -0.00315  -0.00067  -0.00315  -0.00067  -0.00212  -0.00038  -0.00212  -0.00038
 -8.92790  -0.00299  -0.00082  -0.00299  -0.00082  -0.00217  -0.00049  -0.00217  -0.00049
 -8.87774  -0.00272  -0.00095  -0.00272  -0.00095  -0.00207  -0.00059  -0.00207  -0.00059
 -8.82759  -0.00271  -0.00109  -0.00271  -0.00109  -0.00204  -0.00070  -0.00204  -0.00070
 -8.77743  -0.00341  -0.00126  -0.00341  -0.00126  -0.00244  -0.00082  -0.00244  -0.00082
 -8.72727  -0.00525  -0.00152  -0.00525  -0.00152  -0.00372  -0.00100  -0.00372  -0.00100
 -8.67712  -0.00840  -0.00195  -0.00840  -0.00195  -0.00626  -0.00132  -0.00626  -0.00132
 -8.62696  -0.01257  -0.00258  -0.01257  -0.00258  -0.01013  -0.00183  -0.01013  -0.00183
 -8.57680  -0.01691  -0.00342  -0.01691  -0.00342  -0.01489  -0.00257  -0.01489  -0.00257
 -8.52665  -0.02021  -0.00444  -0.02021  -0.00444  -0.01947  -0.00355  -0.01947  -0.00355
 -8.47649  -0.02143  -0.00551  -0.02143  -0.00551  -0.02256  -0.00468  -0.02256  -0.00468
 -8.42633  -0.02032  -0.00653  -0.02032  -0.00653  -0.02320  -0.00584  -0.02320  -0.00584
 -8.37618  -0.01768  -0.00742  -0.01768  -0.00742  -0.02138  -0.00692  -0.02138  -0.00692
 -8.32602  -0.01520  -0.00818  -0.01520  -0.00818  -0.01824  -0.00783  -0.01824  -0.00783
 -8.27586  -0.01484  -0.00893  -0.01484  -0.00893  -0.01572  -0.00862  -0.01572  -0.00862
 -8.22571  -0.01814  -0.00984  -0.01814  -0.00984  -0.01587  -0.00942  -0.01587  -0.00942
 -8.17555  -0.02552  -0.01112  -0.02552  -0.01112  -0.02012  -0.01043  -0.02012  -0.01043
 -8.12539  -0.03580  -0.01291  -0.03580  -0.01291  -0.02860  -0.01186  -0.02860  -0.01186
 -8.07524  -0.04627  -0.01523  -0.04627  -0.01523  -0.03973  -0.01385  -0.03973  -0.01385
 -8.02508  -0.05355  -0.01792  -0.05355  -0.01792  -0.05042  -0.01638  -0.05042  -0.01638
 -7.97492  -0.05508  -0.02068  -0.05508  -0.02068  -0.05713  -0.01925  -0.05713  -0.01925
 -7.92476  -0.05046  -0.02321  -0.05046  -0.02321  -0.05747  -0.02213  -0.05747  -0.02213
 -7.87461  -0.04178  -0.02531  -0.04178  -0.02531  -0.05148  -0.02471  -0.05148  -0.02471
 -7.82445  -0.03265  -0.02695  -0.03265  -0.02695  -0.04173  -0.02680  -0.04173  -0.02680
 -7.77429  -0.02649  -0.02827  -0.02649  -0.02827  -0.03206  -0.02841  -0.03206  -0.02841
 -7.72414  -0.02518  -0.02954  -0.02518  -0.02954  -0.02590  -0.02971  -0.02590  -0.02971
 -7.67398  -0.02843  -0.03096  -0.02843  -0.03096  -0.02495  -0.03096  -0.02495  -0.03096
 -7.62382  -0.03404  -0.03267  -0.03404  -0.03267  -0.02873  -0.03240  -0.02873  -0.03240
 -7.57367  -0.03895  -0.03462  -0.03895  -0.03462  -0.03490  -0.03415  -0.03490  -0.03415
 -7.52351  -0.04056  -0.03666  -0.04056  -0.03666  -0.04026  -0.03617  -0.04026  -0.03617
 -7.47335  -0.03792  -0.03856  -0.03792  -0.03856  -0.04211  -0.03829  -0.04211  -0.03829
 -7.42320  -0.03213  -0.04017  -0.03213  -0.04017  -0.03946  -0.04026  -0.03946  -0.04026
 -7.37304  -0.02568  -0.04146  -0.02568  -0.04146  -0.03339  -0.04194  -0.03339  -0.04194
 -7.32288  -0.02123  -0.04253  -0.02123  -0.04253  -0.02646  -0.04327  -0.02646  -0.04327
 -7.27273  -0.02039  -0.04355  -0.02039  -0.04355  -0.02150  -0.04434  -0.02150  -0.04434
 -7.22257  -0.02316  -0.04471  -0.02316  -0.04471  -0.02032  -0.04536  -0.02032  -0.04536
 -7.17241  -0.02796  -0.04611  -0.02796  -0.04611  -0.02310  -0.04652  -0.02310  -0.04652
 -7.12226  -0.03251  -0.04774  -0.03251  -0.04774  -0.02837  -0.04795  -0.02837  -0.04795
 -7.07210  -0.03497  -0.04950  -0.03497  -0.04950  -0.03370  -0.04964  -0.03370  -0.04964
 -7.02194  -0.03521  -0.05126  -0.03521  -0.05126  -0.03685  -0.05148  -0.03685  -0.05148
 -6.97179  -0.03530  -0.05303  -0.03530  -0.05303  -0.03705  -0.05334  -0.03705  -0.05334
 -6.92163  -0.03898  -0.05499  -0.03898  -0.05499  -0.03579  -0.05514  -0.03579  -0.05514
 -6.87147  -0.04995  -0.05749  -0.04995  -0.05749  -0.03659  -0.05697  -0.03659  -0.05697
 -6.82132  -0.06967  -0.06099  -0.06967  -0.06099  -0.04367  -0.05916  -0.04367  -0.05916
 -6.77116  -0.09564  -0.06578  -0.09564  -0.06578  -0.05984  -0.06216  -0.05984  -0.06216
 -6.72100  -0.12153  -0.07188  -0.12153  -0.07188  -0.08442  -0.06640  -0.08442  -0.06640
 -6.67085  -0.13979  -0.07889  -0.13979  -0.07889  -0.11236  -0.07203  -0.11236  -0.07203
 -6.62069  -0.14579  -0.08620  -0.14579  -0.08620  -0.13560  -0.07884  -0.13560  -0.07884
 -6.57053  -0.14092  -0.09327  -0.14092  -0.09327  -0.14679  -0.08620  -0.14679  -0.08620
 -6.52038  -0.13206  -0.09990  -0.13206  -0.09990  -0.14346  -0.09339  -0.14346  -0.09339
 -6.47022  -0.12740  -0.10629  -0.12740  -0.10629  -0.13002  -0.09991  -0.13002  -0.09991
 -6.42006  -0.13099  -0.11286  -0.13099  -0.11286  -0.11575  -0.10572  -0.11575  -0.10572
 -6.36991  -0.14005  -0.11988  -0.14005  -0.11988  -0.10972  -0.11122  -0.10972  -0.11122
 -6.31975  -0.14677  -0.12724  -0.14677  -0.12724  -0.11570  -0.11703  -0.11570  -0.11703
 -6.26959  -0.14332  -0.13443  -0.14332  -0.13443  -0.12999  -0.12355  -0.12999  -0.12355
 -6.21944  -0.12665  -0.14078  -0.12665  -0.14078  -0.14351  -0.13074  -0.14351  -0.13074
 -6.16928  -0.09988  -0.14579  -0.09988  -0.14579  -0.14686  -0.13811  -0.14686  -0.13811
 -6.11912  -0.06988  -0.14930  -0.06988  -0.14930  -0.13535  -0.14490  -0.13535  -0.14490
 -6.06897  -0.04328  -0.15147  -0.04328  -0.15147  -0.11098  -0.15047  -0.11098  -0.15047
 -6.01881  -0.02384  -0.15266  -0.02384  -0.15266  -0.08059  -0.15451  -0.08059  -0.15451
 -5.96865  -0.01209  -0.15327  -0.01209  -0.15327  -0.05173  -0.15710  -0.05173  -0.15710
 -5.91850  -0.00687  -0.15361  -0.00687  -0.15361  -0.02935  -0.15857  -0.02935  -0.15857
 -5.86834  -0.00715  -0.15397  -0.00715  -0.15397  -0.01480  -0.15932  -0.01480  -0.15932
 -5.81818  -0.01316  -0.15463  -0.01316  -0.15463  -0.00689  -0.15966  -0.00689  -0.15966
 -5.76803  -0.02657  -0.15597  -0.02657  -0.15597  -0.00369  -0.15985  -0.00369  -0.15985
 -5.71787  -0.04954  -0.15845  -0.04954  -0.15845  -0.00388  -0.16004  -0.00388  -0.16004
 -5.66771  -0.08282  -0.16260  -0.08282  -0.16260  -0.00718  -0.16040  -0.00718  -0.16040
 -5.61755  -0.12377  -0.16881  -0.12377  -0.16881  -0.01421  -0.16111  -0.01421  -0.16111
 -5.56740  -0.16560  -0.17712  -0.16560  -0.17712  -0.02589  -0.16241  -0.02589  -0.16241
 -5.51724  -0.19913  -0.18711  -0.19913  -0.18711  -0.04269  -0.16455  -0.04269  -0.16455
 -5.46708  -0.21694  -0.19799  -0.21694  -0.19799  -0.06415  -0.16777  -0.06415  -0.16777
 -5.41693  -0.21760  -0.20890  -0.21760  -0.20890  -0.08904  -0.17224  -0.08904  -0.17224
 -5.36677  -0.20704  -0.21929  -0.20704  -0.21929  -0.11568  -0.17804  -0.11568  -0.17804
 -5.31661  -0.19562  -0.22910  -0.19562  -0.22910  -0.14210  -0.18517  -0.14210  -0.18517
 -5.26646  -0.19279  -0.23877  -0.19279  -0.23877  -0.16536  -0.19346  -0.16536  -0.19346
 -5.21630  -0.20257  -0.24893  -0.20257  -0.24893  -0.18126  -0.20255  -0.18126  -0.20255
 -5.16614  -0.22250  -0.26009  -0.22250  -0.26009  -0.18561  -0.21186  -0.18561  -0.21186
 -5.11599  -0.24600  -0.27243  -0.24600  -0.27243  -0.17709  -0.22074  -0.17709  -0.22074
 -5.06583  -0.26607  -0.28577  -0.26607  -0.28577  -0.15958  -0.22875  -0.15958  -0.22875
 -5.01567  -0.27803  -0.29972  -0.27803  -0.29972  -0.14152  -0.23585  -0.14152  -0.23585
 -4.96552  -0.28074  -0.31380  -0.28074  -0.31380  -0.13185  -0.24246  -0.13185  -0.24246
 -4.91536  -0.27645  -0.32766  -0.27645  -0.32766  -0.13510  -0.24924  -0.13510  -0.24924
 -4.86520  -0.26958  -0.34118  -0.26958  -0.34118  -0.14912  -0.25672  -0.14912  -0.25672
 -4.81505  -0.26439  -0.35445  -0.26439  -0.35445  -0.16697  -0.26509  -0.16697  -0.26509
 -4.76489  -0.26246  -0.36761  -0.26246  -0.36761  -0.18141  -0.27419  -0.18141  -0.27419
 -4.71473  -0.26175  -0.38074  -0.26175  -0.38074  -0.18871  -0.28365  -0.18871  -0.28365
 -4.66458  -0.25857  -0.39371  -0.25857  -0.39371  -0.18907  -0.29314  -0.18907  -0.29314
 -4.61442  -0.25136  -0.40631  -0.25136  -0.40631  -0.18415  -0.30237  -0.18415  -0.30237
 -4.56426  -0.24317  -0.41851  -0.24317  -0.41851  -0.17457  -0.31113  -0.17457  -0.31113
 -4.51411  -0.24043  -0.43057  -0.24043  -0.43057  -0.15978  -0.31914  -0.15978  -0.31914
 -4.46395  -0.24867  -0.44304  -0.24867  -0.44304  -0.14027  -0.32618  -0.14027  -0.32618
 -4.41379  -0.26821  -0.45650  -0.26821  -0.45650  -0.11957  -0.33218  -0.11957  -0.33218
 -4.36364  -0.29285  -0.47118  -0.29285  -0.47118  -0.10404  -0.33740  -0.10404  -0.33740
 -4.31348  -0.31272  -0.48687  -0.31272  -0.48687  -0.10060  -0.34244  -0.10060  -0.34244
 -4.26332  -0.31943  -0.50289  -0.31943  -0.50289  -0.11411  -0.34816  -0.11411  -0.34816
 -4.21317  -0.31072  -0.51848  -0.31072  -0.51848  -0.14591  -0.35548  -0.14591  -0.35548
 -4.16301  -0.29166  -0.53310  -0.29166  -0.53310  -0.19314  -0.36517  -0.19314  -0.36517
 -4.11285  -0.27182  -0.54674  -0.27182  -0.54674  -0.24870  -0.37764  -0.24870  -0.37764
 -4.06270  -0.26002  -0.55978  -0.26002  -0.55978  -0.30188  -0.39278  -0.30188  -0.39278
 -4.01254  -0.25975  -0.57281  -0.25975  -0.57281  -0.34065  -0.40987  -0.34065  -0.40987
 -3.96238  -0.26803  -0.58625  -0.26803  -0.58625  -0.35570  -0.42771  -0.35570  -0.42771
 -3.91223  -0.27792  -0.60019  -0.27792  -0.60019  -0.34439  -0.44499  -0.34439  -0.44499
 -3.86207  -0.28269  -0.61437  -0.28269  -0.61437  -0.31200  -0.46063  -0.31200  -0.46063
 -3.81191  -0.27865  -0.62834  -0.27865  -0.62834  -0.26911  -0.47413  -0.26911  -0.47413
 -3.76176  -0.26540  -0.64166  -0.26540  -0.64166  -0.22660  -0.48550  -0.22660  -0.48550
 -3.71160  -0.24451  -0.65392  -0.24451  -0.65392  -0.19142  -0.49510  -0.19142  -0.49510
 -3.66144  -0.21836  -0.66487  -0.21836  -0.66487  -0.16536  -0.50339  -0.16536  -0.50339
 -3.61129  -0.19001  -0.67440  -0.19001  -0.67440  -0.14701  -0.51077  -0.14701  -0.51077
 -3.56113  -0.16329  -0.68259  -0.16329  -0.68259  -0.13478  -0.51753  -0.13478  -0.51753
 -3.51097  -0.14210  -0.68972  -0.14210  -0.68972  -0.12898  -0.52400  -0.12898  -0.52400
 -3.46082  -0.12903  -0.69619  -0.12903  -0.69619  -0.13189  -0.53061  -0.13189  -0.53061
 -3.41066  -0.12442  -0.70243  -0.12442  -0.70243  -0.14583  -0.53793  -0.14583  -0.53793
 -3.36050  -0.12640  -0.70877  -0.12640  -0.70877  -0.17060  -0.54648  -0.17060  -0.54648
 -3.31034  -0.13208  -0.71540  -0.13208  -0.71540  -0.20195  -0.55661  -0.20195  -0.55661
 -3.26019  -0.13900  -0.72237  -0.13900  -0.72237  -0.23215  -0.56825  -0.23215  -0.56825
 -3.21003  -0.14593  -0.72969  -0.14593  -0.72969  -0.25290  -0.58094  -0.25290  -0.58094
 -3.15987  -0.15284  -0.73735  -0.15284  -0.73735  -0.25881  -0.59392  -0.25881  -0.59392
 -3.10972  -0.16014  -0.74539  -0.16014  -0.74539  -0.24974  -0.60645  -0.24974  -0.60645
 -3.05956  -0.16806  -0.75381  -0.16806  -0.75381  -0.23068  -0.61802  -0.23068  -0.61802
 -3.00940  -0.17641  -0.76266  -0.17641  -0.76266  -0.20924  -0.62851  -0.20924  -0.62851
 -2.95925  -0.18468  -0.77193  -0.18468  -0.77193  -0.19229  -0.63816  -0.19229  -0.63816
 -2.90909  -0.19203  -0.78156  -0.19203  -0.78156  -0.18326  -0.64735  -0.18326  -0.64735
 -2.85893  -0.19713  -0.79144  -0.19713  -0.79144  -0.18147  -0.65645  -0.18147  -0.65645
 -2.80878  -0.19825  -0.80139  -0.19825  -0.80139  -0.18307  -0.66563  -0.18307  -0.66563
 -2.75862  -0.19379  -0.81111  -0.19379  -0.81111  -0.18328  -0.67483  -0.18328  -0.67483
 -2.70846  -0.18308  -0.82029  -0.18308  -0.82029  -0.17859  -0.68378  -0.17859  -0.68378
 -2.65831  -0.16678  -0.82866  -0.16678  -0.82866  -0.16845  -0.69223  -0.16845  -0.69223
 -2.60815  -0.14657  -0.83601  -0.14657  -0.83601  -0.15560  -0.70004  -0.15560  -0.70004
 -2.55799  -0.12459  -0.84226  -0.12459  -0.84226  -0.14502  -0.70731  -0.14502  -0.70731
 -2.50784  -0.10295  -0.84742  -0.10295  -0.84742  -0.14170  -0.71442  -0.14170  -0.71442
 -2.45768  -0.08356  -0.85161  -0.08356  -0.85161  -0.14831  -0.72186  -0.14831  -0.72186
 -2.40752  -0.06796  -0.85502  -0.06796  -0.85502  -0.16393  -0.73008  -0.16393  -0.73008
 -2.35737  -0.05700  -0.85788  -0.05700  -0.85788  -0.18443  -0.73933  -0.18443  -0.73933
 -2.30721  -0.05059  -0.86042  -0.05059  -0.86042  -0.20440  -0.74958  -0.20440  -0.74958
 -2.25705  -0.04777  -0.86281  -0.04777  -0.86281  -0.21952  -0.76059  -0.21952  -0.76059
 -2.20690  -0.04743  -0.86519  -0.04743  -0.86519  -0.22812  -0.77203  -0.22812  -0.77203
 -2.15674  -0.04898  -0.86765  -0.04898  -0.86765  -0.23127  -0.78363  -0.23127  -0.78363
 -2.10658  -0.05245  -0.87028  -0.05245  -0.87028  -0.23129  -0.79523  -0.23129  -0.79523
 -2.05643  -0.05781  -0.87318  -0.05781  -0.87318  -0.22983  -0.80676  -0.22983  -0.80676
 -2.00627  -0.06414  -0.87639  -0.06414  -0.87639  -0.22650  -0.81812  -0.22650  -0.81812
 -1.95611  -0.06934  -0.87987  -0.06934  -0.87987  -0.21910  -0.82911  -0.21910  -0.82911
 -1.90596  -0.07100  -0.88343  -0.07100  -0.88343  -0.20549  -0.83942  -0.20549  -0.83942
 -1.85580  -0.06769  -0.88683  -0.06769  -0.88683  -0.18612  -0.84875  -0.18612  -0.84875
 -1.80564  -0.05973  -0.88982  -0.05973  -0.88982  -0.16536  -0.85705  -0.16536  -0.85705
 -1.75549  -0.04869  -0.89227  -0.04869  -0.89227  -0.15020  -0.86458  -0.15020  -0.86458
 -1.70533  -0.03628  -0.89409  -0.03628  -0.89409  -0.14669  -0.87194  -0.14669  -0.87194
 -1.65517  -0.02347  -0.89526  -0.02347  -0.89526  -0.15636  -0.87978  -0.15636  -0.87978
 -1.60502  -0.01062  -0.89580  -0.01062  -0.89580  -0.17502  -0.88856  -0.17502  -0.88856
 -1.55486   0.00181  -0.89571   0.00181  -0.89571  -0.19477  -0.89833  -0.19477  -0.89833
 -1.50470   0.01291  -0.89506   0.01291  -0.89506  -0.20785  -0.90875  -0.20785  -0.90875
 -1.45455   0.02172  -0.89397   0.02172  -0.89397  -0.20988  -0.91928  -0.20988  -0.91928
 -1.40439   0.02800  -0.89256   0.02800  -0.89256  -0.20098  -0.92936  -0.20098  -0.92936
 -1.35423   0.03272  -0.89092   0.03272  -0.89092  -0.18473  -0.93863  -0.18473  -0.93863
 -1.30408   0.03789  -0.88902   0.03789  -0.88902  -0.16614  -0.94696  -0.16614  -0.94696
 -1.25392   0.04583  -0.88672   0.04583  -0.88672  -0.14970  -0.95447  -0.14970  -0.95447
 -1.20376   0.05837  -0.88380   0.05837  -0.88380  -0.13829  -0.96140  -0.13829  -0.96140
 -1.15361   0.07598  -0.87999   0.07598  -0.87999  -0.13291  -0.96807  -0.13291  -0.96807
 -1.10345   0.09737  -0.87510   0.09737  -0.87510  -0.13296  -0.97474  -0.13296  -0.97474
 -1.05329   0.11937  -0.86911   0.11937  -0.86911  -0.13645  -0.98158  -0.13645  -0.98158
 -1.00313   0.13762  -0.86221   0.13762  -0.86221  -0.14034  -0.98862  -0.14034  -0.98862
 -0.95298   0.14790  -0.85479   0.14790  -0.85479  -0.14119  -0.99570  -0.14119  -0.99570
 -0.90282   0.14766  -0.84739   0.14766  -0.84739  -0.13631  -1.00254  -0.13631  -1.00254
 -0.85266   0.13688  -0.84052   0.13688  -0.84052  -0.12489  -1.00880  -0.12489  -1.00880
 -0.80251   0.11798  -0.83460   0.11798  -0.83460  -0.10840  -1.01424  -0.10840  -1.01424
 -0.75235   0.09470  -0.82986   0.09470  -0.82986  -0.08979  -1.01875  -0.08979  -1.01875
 -0.70219   0.07080  -0.82630   0.07080  -0.82630  -0.07212  -1.02236  -0.07212  -1.02236
 -0.65204   0.04911  -0.82384   0.04911  -0.82384  -0.05740  -1.02524  -0.05740  -1.02524
 -0.60188   0.03109  -0.82228   0.03109  -0.82228  -0.04621  -1.02756  -0.04621  -1.02756
 -0.55172   0.01700  -0.82143   0.01700  -0.82143  -0.03806  -1.02947  -0.03806  -1.02947
 -0.50157   0.00622  -0.82112   0.00622  -0.82112  -0.03210  -1.03108  -0.03210  -1.03108
 -0.45141  -0.00221  -0.82123  -0.00221  -0.82123  -0.02765  -1.03247  -0.02765  -1.03247
 -0.40125  -0.00907  -0.82168  -0.00907  -0.82168  -0.02427  -1.03368  -0.02427  -1.03368
 -0.35110  -0.01453  -0.82241  -0.01453  -0.82241  -0.02167  -1.03477  -0.02167  -1.03477
 -0.30094  -0.01820  -0.82332  -0.01820  -0.82332  -0.01955  -1.03575  -0.01955  -1.03575
 -0.25078  -0.01954  -0.82430  -0.01954  -0.82430  -0.01759  -1.03663  -0.01759  -1.03663
 -0.20063  -0.01845  -0.82523  -0.01845  -0.82523  -0.01558  -1.03741  -0.01558  -1.03741
 -0.15047  -0.01553  -0.82601  -0.01553  -0.82601  -0.01353  -1.03809  -0.01353  -1.03809
 -0.10031  -0.01203  -0.82661  -0.01203  -0.82661  -0.01165  -1.03868  -0.01165  -1.03868
 -0.05016  -0.00932  -0.82708  -0.00932  -0.82708  -0.01024  -1.03919  -0.01024  -1.03919
  0.00000  -0.00848  -0.82750  -0.00848  -0.82750  -0.00964  -1.03967  -0.00964  -1.03967
  0.05016  -0.00997  -0.82800  -0.00997  -0.82800  -0.01015  -1.04018  -0.01015  -1.04018
  0.10031  -0.01349  -0.82868  -0.01349  -0.82868  -0.01201  -1.04079  -0.01201  -1.04079
  0.15047  -0.01804  -0.82959  -0.01804  -0.82959  -0.01519  -1.04155  -0.01519  -1.04155
  0.20063  -0.02212  -0.83070  -0.02212  -0.83070  -0.01923  -1.04251  -0.01923  -1.04251
  0.25078  -0.02441  -0.83192  -0.02441  -0.83192  -0.02314  -1.04367  -0.02314  -1.04367
  0.30094  -0.02447  -0.83315  -0.02447  -0.83315  -0.02563  -1.04496  -0.02563  -1.04496
  0.35110  -0.02330  -0.83432  -0.02330  -0.83432  -0.02544  -1.04623  -0.02544  -1.04623
  0.40125  -0.02326  -0.83548  -0.02326  -0.83548  -0.02183  -1.04733  -0.02183  -1.04733
  0.45141  -0.02738  -0.83686  -0.02738  -0.83686  -0.01464  -1.04806  -0.01464  -1.04806
  0.50157  -0.03823  -0.83877  -0.03823  -0.83877  -0.00427  -1.04828  -0.00427  -1.04828
  0.55172  -0.05655  -0.84161  -0.05655  -0.84161   0.00855  -1.04785   0.00855  -1.04785
  0.60188  -0.08024  -0.84563  -0.08024  -0.84563   0.02286  -1.04670   0.02286  -1.04670
  0.65204  -0.10426  -0.85086  -0.10426  -0.85086   0.03747  -1.04482   0.03747  -1.04482
  0.70219  -0.12199  -0.85698  -0.12199  -0.85698   0.05093  -1.04227   0.05093  -1.04227
  0.75235  -0.12780  -0.86339  -0.12780  -0.86339   0.06156  -1.03918   0.06156  -1.03918
  0.80251  -0.11957  -0.86939  -0.11957  -0.86939   0.06775  -1.03578   0.06775  -1.03578
  0.85266  -0.09975  -0.87439  -0.09975  -0.87439   0.06839  -1.03235   0.06839  -1.03235
  0.90282  -0.07407  -0.87811  -0.07407  -0.87811   0.06349  -1.02917   0.06349  -1.02917
  0.95298  -0.04888  -0.88056  -0.04888  -0.88056   0.05442  -1.02644   0.05442  -1.02644
  1.00313  -0.02870  -0.88200  -0.02870  -0.88200   0.04363  -1.02425   0.04363  -1.02425
  1.05329  -0.01526  -0.88276  -0.01526  -0.88276   0.03380  -1.02255   0.03380  -1.02255
  1.10345  -0.00818  -0.88317  -0.00818  -0.88317   0.02670  -1.02122   0.02670  -1.02122
  1.15361  -0.00626  -0.88349  -0.00626  -0.88349   0.02233  -1.02010   0.02233  -1.02010
  1.20376  -0.00850  -0.88392  -0.00850  -0.88392   0.01895  -1.01914   0.01895  -1.01914
  1.25392  -0.01440  -0.88464  -0.01440  -0.88464   0.01389  -1.01845   0.01389  -1.01845
  1.30408  -0.02336  -0.88581  -0.02336  -0.88581   0.00499  -1.01820   0.00499  -1.01820
  1.35423  -0.03407  -0.88752  -0.03407  -0.88752  -0.00816  -1.01861  -0.00816  -1.01861
  1.40439  -0.04419  -0.88973  -0.04419  -0.88973  -0.02378  -1.01980  -0.02378  -1.01980
  1.45455  -0.05090  -0.89229  -0.05090  -0.89229  -0.03840  -1.02173  -0.03840  -1.02173
  1.50470  -0.05210  -0.89490  -0.05210  -0.89490  -0.04836  -1.02415  -0.04836  -1.02415
  1.55486  -0.04741  -0.89728  -0.04741  -0.89728  -0.05130  -1.02672  -0.05130  -1.02672
  1.60502  -0.03838  -0.89920  -0.03838  -0.89920  -0.04719  -1.02909  -0.04719  -1.02909
  1.65517  -0.02768  -0.90059  -0.02768  -0.90059  -0.03819  -1.03101  -0.03819  -1.03101
  1.70533  -0.01788  -0.90149  -0.01788  -0.90149  -0.02757  -1.03239  -0.02757  -1.03239
  1.75549  -0.01063  -0.90202  -0.01063  -0.90202  -0.01842  -1.03331  -0.01842  -1.03331
  1.80564  -0.00656  -0.90235  -0.00656  -0.90235  -0.01276  -1.03395  -0.01276  -1.03395
  1.85580  -0.00579  -0.90264  -0.00579  -0.90264  -0.01122  -1.03452  -0.01122  -1.03452
  1.90596  -0.00838  -0.90306  -0.00838  -0.90306  -0.01313  -1.03517  -0.01313  -1.03517
  1.95611  -0.01451  -0.90379  -0.01451  -0.90379  -0.01679  -1.03602  -0.01679  -1.03602
  2.00627  -0.02407  -0.90500  -0.02407  -0.90500  -0.01988  -1.03701  -0.01988  -1.03701
  2.05643  -0.03604  -0.90680  -0.03604  -0.90680  -0.02020  -1.03803  -0.02020  -1.03803
  2.10658  -0.04824  -0.90922  -0.04824  -0.90922  -0.01653  -1.03886  -0.01653  -1.03886
  2.15674  -0.05785  -0.91213  -0.05785  -0.91213  -0.00920  -1.03932  -0.00920  -1.03932
  2.20690  -0.06271  -0.91527  -0.06271  -0.91527   0.00011  -1.03931   0.00011  -1.03931
  2.25705  -0.06245  -0.91840  -0.06245  -0.91840   0.00920  -1.03885   0.00920  -1.03885
  2.30721  -0.05872  -0.92135  -0.05872  -0.92135   0.01634  -1.03803   0.01634  -1.03803
  2.35737  -0.05413  -0.92406  -0.05413  -0.92406   0.02064  -1.03700   0.02064  -1.03700
  2.40752  -0.05058  -0.92660  -0.05058  -0.92660   0.02204  -1.03589   0.02204  -1.03589
  2.45768  -0.04824  -0.92902  -0.04824  -0.92902   0.02093  -1.03484   0.02093  -1.03484
  2.50784  -0.04588  -0.93132  -0.04588  -0.93132   0.01792  -1.03394   0.01792  -1.03394
  2.55799  -0.04210  -0.93343  -0.04210  -0.93343   0.01367  -1.03326   0.01367  -1.03326
  2.60815  -0.03642  -0.93526  -0.03642  -0.93526   0.00871  -1.03282   0.00871  -1.03282
  2.65831  -0.02950  -0.93674  -0.02950  -0.93674   0.00328  -1.03265   0.00328  -1.03265
  2.70846  -0.02252  -0.93787  -0.02252  -0.93787  -0.00256  -1.03278  -0.00256  -1.03278
  2.75862  -0.01640  -0.93869  -0.01640  -0.93869  -0.00873  -1.03322  -0.00873  -1.03322
  2.80878  -0.01150  -0.93927  -0.01150  -0.93927  -0.01472  -1.03396  -0.01472  -1.03396
  2.85893  -0.00775  -0.93966  -0.00775  -0.93966  -0.01950  -1.03494  -0.01950  -1.03494
  2.90909  -0.00498  -0.93991  -0.00498  -0.93991  -0.02184  -1.03603  -0.02184  -1.03603
  2.95925  -0.00310  -0.94006  -0.00310  -0.94006  -0.02090  -1.03708  -0.02090  -1.03708
  3.00940  -0.00210  -0.94017  -0.00210  -0.94017  -0.01684  -1.03792  -0.01684  -1.03792
  3.05956  -0.00213  -0.94027  -0.00213  -0.94027  -0.01086  -1.03847  -0.01086  -1.03847
  3.10972  -0.00356  -0.94045  -0.00356  -0.94045  -0.00469  -1.03870  -0.00469  -1.03870
  3.15987  -0.00698  -0.94080  -0.00698  -0.94080   0.00014  -1.03870   0.00014  -1.03870
  3.21003  -0.01323  -0.94147  -0.01323  -0.94147   0.00291  -1.03855   0.00291  -1.03855
  3.26019  -0.02314  -0.94263  -0.02314  -0.94263   0.00380  -1.03836   0.00380  -1.03836
  3.31034  -0.03722  -0.94449  -0.03722  -0.94449   0.00361  -1.03818   0.00361  -1.03818
  3.36050  -0.05528  -0.94727  -0.05528  -0.94727   0.00328  -1.03802   0.00328  -1.03802
  3.41066  -0.07600  -0.95108  -0.07600  -0.95108   0.00349  -1.03784   0.00349  -1.03784
  3.46082  -0.09663  -0.95593  -0.09663  -0.95593   0.00440  -1.03762   0.00440  -1.03762
  3.51097  -0.11310  -0.96160  -0.11310  -0.96160   0.00564  -1.03734   0.00564  -1.03734
  3.56113  -0.12109  -0.96767  -0.12109  -0.96767   0.00646  -1.03701   0.00646  -1.03701
  3.61129  -0.11779  -0.97358  -0.11779  -0.97358   0.00593  -1.03672   0.00593  -1.03672
  3.66144  -0.10345  -0.97877  -0.10345  -0.97877   0.00327  -1.03655   0.00327  -1.03655
  3.71160  -0.08164  -0.98286  -0.08164  -0.98286  -0.00179  -1.03664  -0.00179  -1.03664
  3.76176  -0.05768  -0.98576  -0.05768  -0.98576  -0.00879  -1.03708  -0.00879  -1.03708
  3.81191  -0.03639  -0.98758  -0.03639  -0.98758  -0.01648  -1.03791  -0.01648  -1.03791
  3.86207  -0.02047  -0.98861  -0.02047  -0.98861  -0.02306  -1.03907  -0.02306  -1.03907
  3.91223  -0.01025  -0.98912  -0.01025  -0.98912  -0.02687  -1.04041  -0.02687  -1.04041
  3.96238  -0.00458  -0.98935  -0.00458  -0.98935  -0.02701  -1.04177  -0.02701  -1.04177
  4.01254  -0.00183  -0.98944  -0.00183  -0.98944  -0.02385  -1.04296  -0.02385  -1.04296
  4.06270  -0.00071  -0.98948  -0.00071  -0.98948  -0.01880  -1.04391  -0.01880  -1.04391
  4.11285  -0.00041  -0.98950  -0.00041  -0.98950  -0.01371  -1.04459  -0.01371  -1.04459
  4.16301  -0.00065  -0.98953  -0.00065  -0.98953  -0.01016  -1.04510  -0.01016  -1.04510
  4.21317  -0.00152  -0.98961  -0.00152  -0.98961  -0.00885  -1.04555  -0.00885  -1.04555
  4.26332  -0.00335  -0.98978  -0.00335  -0.98978  -0.00950  -1.04602  -0.00950  -1.04602
  4.31348  -0.00657  -0.99011  -0.00657  -0.99011  -0.01104  -1.04658  -0.01104  -1.04658
  4.36364  -0.01140  -0.99068  -0.01140  -0.99068  -0.01215  -1.04719  -0.01215  -1.04719
  4.41379  -0.01747  -0.99155  -0.01747  -0.99155  -0.01192  -1.04779  -0.01192  -1.04779
  4.46395  -0.02363  -0.99274  -0.02363  -0.99274  -0.01024  -1.04830  -0.01024  -1.04830
  4.51411  -0.02823  -0.99415  -0.02823  -0.99415  -0.00771  -1.04869  -0.00771  -1.04869
  4.56426  -0.02977  -0.99565  -0.02977  -0.99565  -0.00517  -1.04894  -0.00517  -1.04894
  4.61442  -0.02773  -0.99704  -0.02773  -0.99704  -0.00333  -1.04911  -0.00333  -1.04911
  4.66458  -0.02280  -0.99818  -0.02280  -0.99818  -0.00260  -1.04924  -0.00260  -1.04924
  4.71473  -0.01655  -0.99901  -0.01655  -0.99901  -0.00314  -1.04940  -0.00314  -1.04940
  4.76489  -0.01061  -0.99954  -0.01061  -0.99954  -0.00497  -1.04965  -0.00497  -1.04965
  4.81505  -0.00601  -0.99985  -0.00601  -0.99985  -0.00793  -1.05005  -0.00793  -1.05005
  4.86520  -0.00300  -1.00000  -0.00300  -1.00000  -0.01151  -1.05062  -0.01151  -1.05062
  4.91536  -0.00132  -1.00006  -0.00132  -1.00006  -0.01484  -1.05137  -0.01484  -1.05137
  4.96552  -0.00052  -1.00009  -0.00052  -1.00009  -0.01693  -1.05222  -0.01693  -1.05222
  5.01567  -0.00018  -1.00010  -0.00018  -1.00010  -0.01704  -1.05307  -0.01704  -1.05307
  5.06583  -0.00005  -1.00010  -0.00005  -1.00010  -0.01516  -1.05383  -0.01516  -1.05383
  5.11599  -0.00001  -1.00010  -0.00001  -1.00010  -0.01190  -1.05443  -0.01190  -1.05443
  5.16614  -0.00000  -1.00010  -0.00000  -1.00010  -0.00825  -1.05484  -0.00825  -1.05484
  5.21630   0.00000  -1.00010   0.00000  -1.00010  -0.00505  -1.05510  -0.00505  -1.05510
  5.26646   0.00001  -1.00010   0.00001  -1.00010  -0.00273  -1.05523  -0.00273  -1.05523
  5.31661   0.00005  -1.00010   0.00005  -1.00010  -0.00130  -1.05530  -0.00130  -1.05530
  5.36677   0.00016  -1.00009   0.00016  -1.00009  -0.00055  -1.05533  -0.00055  -1.05533
  5.41693   0.00042  -1.00007   0.00042  -1.00007  -0.00020  -1.05534  -0.00020  -1.05534
  5.46708   0.00098  -1.00002   0.00098  -1.00002  -0.00007  -1.05534  -0.00007  -1.05534
  5.51724   0.00202  -0.99992   0.00202  -0.99992  -0.00002  -1.05534  -0.00002  -1.05534
  5.56740   0.00363  -0.99974   0.00363  -0.99974  -0.00000  -1.05534  -0.00000  -1.05534
  5.61755   0.00575  -0.99945   0.00575  -0.99945  -0.00000  -1.05534  -0.00000  -1.05534
  5.66771   0.00801  -0.99905   0.00801  -0.99905   0.00000  -1.05534   0.00000  -1.05534
  5.71787   0.00986  -0.99855   0.00986  -0.99855   0.00001  -1.05534   0.00001  -1.05534
  5.76803   0.01072  -0.99801   0.01072  -0.99801   0.00005  -1.05534   0.00005  -1.05534
  5.81818   0.01033  -0.99750   0.01033  -0.99750   0.00016  -1.05533   0.00016  -1.05533
  5.86834   0.00884  -0.99705   0.00884  -0.99705   0.00044  -1.05531   0.00044  -1.05531
  5.91850   0.00680  -0.99671   0.00680  -0.99671   0.00107  -1.05526   0.00107  -1.05526
  5.96865   0.00490  -0.99647   0.00490  -0.99647   0.00232  -1.05514   0.00232  -1.05514
  6.01881   0.00376  -0.99628   0.00376  -0.99628   0.00444  -1.05492   0.00444  -1.05492