  COHP#       atomMU       atomNU     distance     translation      ICOHP (at) eF   for spin  1
      1         Nb33          Mo1      2.78574       0   1   0           -0.81735 
      2         Nb36          Mo1      2.75842       0   0   0           -0.68631 
      3         Ta65          Mo1      2.82317       0   0   0           -0.43864 
      4         Ta66          Mo1      2.79672       0   0   0           -0.53259 
      5         Ta76          Mo1      2.81659       0   1   0           -0.55929 
      6         Ta77          Mo1      2.78736       0   1   0           -0.55431 
      7         Ta80          Mo1      2.81730       0   0   1           -0.48791 
      8          W97          Mo1      2.74449       0   1   0           -0.65511 
      9         Nb33          Mo2      2.80124       0   1  -1           -0.80248 
     10         Nb34          Mo2      2.79769       0   1   0           -0.72224 
     11         Nb37          Mo2      2.76352       0   0   0           -0.74683 
     12         Ta65          Mo2      2.81388       0   0  -1           -0.41484 
     13         Ta67          Mo2      2.82340       1   0   0           -0.52436 
     14         Ta76          Mo2      2.81220       0   1  -1           -0.50658 
     15         Ta79          Mo2      2.80151       0   1   0           -0.42979 
     16         Ta80          Mo2      2.77740       0   0   0           -0.46967 
     17         Nb36          Mo3      2.78144       0   0   0           -0.70273 
     18         Ta65          Mo3      2.76369       0   0   0           -0.35078 
     19         Ta66          Mo3      2.77141       0   0   0           -0.39273 
     20         Ta68          Mo3      2.81172       1   0   1           -0.49390 
     21         Ta69          Mo3      2.80250       1   0   0           -0.46306 
     22         Ta80          Mo3      2.80124       0   0   1           -0.43158 
     23         Ta81          Mo3      2.80743       0   0   1           -0.42889 
     24         Ta82          Mo3      2.79775       0   0   0           -0.37947 
     25         Nb36          Mo4      2.80003       0   0   0           -0.76554 
     26         Ta66          Mo4      2.77281       0   0   0           -0.51364 
     27         Ta69          Mo4      2.83404       1   0   0           -0.61761 
     28         Ta70          Mo4      2.81224       1   0   0           -0.67722 
     29         Ta82          Mo4      2.83494       0   0   0           -0.59909 
     30         Ta83          Mo4      2.80663       0   0   0           -0.45620 
     31          W99          Mo4      2.75261       1   0   0           -0.88482 
     32         W101          Mo4      2.73782       0   0   0           -0.82729 
     33         Nb37          Mo5      2.79631       0   0   0           -0.74236 
     34         Ta67          Mo5      2.78188       1   0   0           -0.43058 
     35         Ta70          Mo5      2.80743       1   0   0           -0.55401 
     36         Ta71          Mo5      2.83718       1   0   0           -0.60920 
     37         Ta83          Mo5      2.80031       0   0   0           -0.33148 
     38         Ta84          Mo5      2.84528       0   0   0           -0.55563 
     39          W99          Mo5      2.76108       1   0   0           -0.74319 
     40         W101          Mo5      2.77034       0   0   0           -0.81043 
     41         Nb37          Mo6      2.74992       0   0   0           -0.72586 
     42         Ta65          Mo6      2.77760       0   0  -1           -0.30075 
     43         Ta67          Mo6      2.77702       1   0   0           -0.38800 
     44         Ta68          Mo6      2.81169       1   0   0           -0.54160 
     45         Ta71          Mo6      2.80370       1   0   0           -0.53848 
     46         Ta80          Mo6      2.79839       0   0   0           -0.43519 
     47         Ta81          Mo6      2.78900       0   0   0           -0.39580 
     48         Ta84          Mo6      2.78816       0   0   0           -0.42270 
     49         Ta68          Mo7      2.80704       1   0   1           -0.35620 
     50         Ta69          Mo7      2.81033       1   0   0           -0.39090 
     51         Ta72          Mo7      2.78668       0   0   1           -0.26812 
     52         Ta73          Mo7      2.76963       0   0   0           -0.30304 
     53         Ta81          Mo7      2.79144       0   0   1           -0.29518 
     54         Ta82          Mo7      2.76509       0   0   0           -0.26159 
     55         Ta85          Mo7      2.79102       0   0   1           -0.43590 
     56         Ta86          Mo7      2.79459       0   0   0           -0.35942 
     57         Ta69          Mo8      2.79978       1   0   0           -0.39713 
     58         Ta70          Mo8      2.80059       1   0   0           -0.37177 
     59         Ta73          Mo8      2.78228       0   0   0           -0.29955 
     60         Ta74          Mo8      2.77944       0   0   0           -0.36556 
     61         Ta82          Mo8      2.76789       0   0   0           -0.26407 
     62         Ta83          Mo8      2.75936       0   0   0           -0.26049 
     63         Ta86          Mo8      2.80041       0   0   0           -0.37576 
     64         Ta87          Mo8      2.79712       0   0   0           -0.39155 
     65         Ta70          Mo9      2.79838       1   0   0           -0.37322 
     66         Ta71          Mo9      2.79585       1   0   0           -0.35243 
     67         Ta74          Mo9      2.76914       0   0   0           -0.27804 
     68         Ta75          Mo9      2.78317       0   0   0           -0.28893 
     69         Ta83          Mo9      2.75855       0   0   0           -0.20140 
     70         Ta84          Mo9      2.78110       0   0   0           -0.31906 
     71         Ta87          Mo9      2.79581       0   0   0           -0.39488 
     72         Ta88          Mo9      2.79579       0   0   0           -0.41994 
     73         Ta68         Mo10      2.80055       1   0   0           -0.35456 
     74         Ta71         Mo10      2.80305       1   0   0           -0.38132 
     75         Ta72         Mo10      2.78886       0   0   0           -0.34322 
     76         Ta75         Mo10      2.78449       0   0   0           -0.34733 
     77         Ta81         Mo10      2.77627       0   0   0           -0.23964 
     78         Ta84         Mo10      2.76364       0   0   0           -0.23684 
     79         Ta85         Mo10      2.79387       0   0   0           -0.36645 
     80         Ta88         Mo10      2.79519       0   0   0           -0.34506 
     81         Nb33         Mo11      2.75115       0   0   0           -0.76145 
     82         Ta72         Mo11      2.80583       0   0   1           -0.41137 
     83         Ta73         Mo11      2.78200       0   0   0           -0.36374 
     84         Ta76         Mo11      2.80170       0   0   0           -0.39248 
     85         Ta77         Mo11      2.78120       0   0   0           -0.43952 
     86         Ta85         Mo11      2.82081       0   0   1           -0.57317 
     87         Ta86         Mo11      2.80628       0   0   0           -0.53100 
     88          W97         Mo11      2.74503       0   0   0           -0.67970 
     89         Ta73         Mo12      2.79964       0   0   0           -0.46376 
     90         Ta74         Mo12      2.80797       0   0   0           -0.48534 
     91         Ta77         Mo12      2.79436       0   0   0           -0.50433 
     92         Ta78         Mo12      2.75963       0   0   0           -0.40602 
     93         Ta86         Mo12      2.82188       0   0   0           -0.70306 
     94         Ta87         Mo12      2.83681       0   0   0           -0.65757 
     95          W97         Mo12      2.74243       0   0   0           -0.71562 
     96          W98         Mo12      2.75252       0   0   0           -0.77259 
     97         Nb34         Mo13      2.76016       0   0   0           -0.72436 
     98         Ta74         Mo13      2.78691       0   0   0           -0.41372 
     99         Ta75         Mo13      2.80896       0   0   0           -0.38738 
    100         Ta78         Mo13      2.78632       0   0   0           -0.41886 
    101         Ta79         Mo13      2.80260       0   0   0           -0.42563 
    102         Ta87         Mo13      2.81281       0   0   0           -0.51083 
    103         Ta88         Mo13      2.82620       0   0   0           -0.60858 
    104          W98         Mo13      2.75073       0   0   0           -0.65616 
    105         Nb33         Mo14      2.77102       0   0  -1           -0.69050 
    106         Nb34         Mo14      2.77627       0   0   0           -0.73609 
    107         Ta72         Mo14      2.79456       0   0   0           -0.41406 
    108         Ta75         Mo14      2.80120       0   0   0           -0.41531 
    109         Ta76         Mo14      2.80451       0   0  -1           -0.35963 
    110         Ta79         Mo14      2.76003       0   0   0           -0.31729 
    111         Ta85         Mo14      2.78938       0   0   0           -0.61909 
    112         Ta88         Mo14      2.80307       0   0   0           -0.56190 
    113         Ta81         Mo15      2.80299       0   0   1           -0.42790 
    114         Ta82         Mo15      2.80136       0   0   0           -0.48625 
    115         Ta85         Mo15      2.82593       0   0   1           -0.65243 
    116         Ta86         Mo15      2.83657       0   0   0           -0.65476 
    117         Ta89         Mo15      2.76097       0   0   0           -0.35288 
    118         Ta90         Mo15      2.78340       0   0   0           -0.44273 
    119         W109         Mo15      2.76376       0   0   1           -0.70499 
    120         W110         Mo15      2.77620       0   0   0           -0.80311 
    121         Nb47         Mo16      2.79161       0   0   0           -0.72403 
    122         Ta82         Mo16      2.79429       0   0   0           -0.47804 
    123         Ta83         Mo16      2.81591       0   0   0           -0.40259 
    124         Ta86         Mo16      2.81572       0   0   0           -0.54842 
    125         Ta87         Mo16      2.83112       0   0   0           -0.59691 
    126         Ta90         Mo16      2.77593       0   0   0           -0.37858 
    127         Ta91         Mo16      2.78858       0   0   0           -0.33342 
    128         W110         Mo16      2.78926       0   0   0           -0.68438 
    129         Nb47         Mo17      2.77493       0   0   0           -0.88719 
    130         Ta83         Mo17      2.81340       0   0   0           -0.43986 
    131         Ta84         Mo17      2.79014       0   0   0           -0.49354 
    132         Ta87         Mo17      2.83090       0   0   0           -0.61445 
    133         Ta88         Mo17      2.80889       0   0   0           -0.56731 
    134         Ta91         Mo17      2.79027       0   0   0           -0.51493 
    135         Ta92         Mo17      2.75589       0   0   0           -0.44533 
    136         W111         Mo17      2.76508       0   0   0           -0.75028 
    137         Ta81         Mo18      2.79400       0   0   0           -0.53639 
    138         Ta84         Mo18      2.79368       0   0   0           -0.44881 
    139         Ta85         Mo18      2.82240       0   0   0           -0.64104 
    140         Ta88         Mo18      2.83065       0   0   0           -0.62952 
    141         Ta89         Mo18      2.76523       0   0  -1           -0.32989 
    142         Ta92         Mo18      2.76632       0   0   0           -0.38185 
    143         W109         Mo18      2.76421       0   0   0           -0.76053 
    144         W111         Mo18      2.76334       0   0   0           -0.80226 
    145         Ta76         Mo19      2.79343       0   0   0           -0.46728 
    146         Ta77         Mo19      2.78721       0   0   0           -0.44463 
    147         Ta85         Mo19      2.82571       0   0   1           -0.50718 
    148         Ta86         Mo19      2.82383       0   0   0           -0.54318 
    149         Ta89         Mo19      2.78451       0   0   0           -0.37580 
    150         Ta90         Mo19      2.76742       0   0   0           -0.28637 
    151         W106         Mo19      2.75566       0  -1   0           -0.70272 
    152         W107         Mo19      2.76677       0   0   0           -0.70477 
    153         Nb42         Mo20      2.74275       0   0   0           -0.72804 
    154         Ta77         Mo20      2.78443       0   0   0           -0.53828 
    155         Ta78         Mo20      2.76393       0   0   0           -0.32275 
    156         Ta86         Mo20      2.80468       0   0   0           -0.43675 
    157         Ta87         Mo20      2.83145       0   0   0           -0.48808 
    158         Ta90         Mo20      2.77192       0   0   0           -0.48929 
    159         Ta91         Mo20      2.78813       0   0   0           -0.51527 
    160         W107         Mo20      2.76764       0   0   0           -0.70057 
    161         Nb42         Mo21      2.79043       0   0   0           -0.67867 
    162         Ta78         Mo21      2.80110       0   0   0           -0.37499 
    163         Ta79         Mo21      2.78959       0   0   0           -0.47036 
    164         Ta87         Mo21      2.82219       0   0   0           -0.49552 
    165         Ta88         Mo21      2.80772       0   0   0           -0.37909 
    166         Ta91         Mo21      2.78031       0   0   0           -0.37922 
    167         Ta92         Mo21      2.78746       0   0   0           -0.42511 
    168         W108         Mo21      2.77897       0   0   0           -0.67985 
    169         Ta76         Mo22      2.79961       0   0  -1           -0.57574 
    170         Ta79         Mo22      2.76544       0   0   0           -0.43154 
    171         Ta85         Mo22      2.81992       0   0   0           -0.50560 
    172         Ta88         Mo22      2.83849       0   0   0           -0.53983 
    173         Ta89         Mo22      2.78596       0   0  -1           -0.41139 
    174         Ta92         Mo22      2.79673       0   0   0           -0.51859 
    175         W106         Mo22      2.77082       0  -1  -1           -0.73718 
    176         W108         Mo22      2.73353       0   0   0           -0.76957 
    177         Nb58         Mo23      2.82158       0   0   0           -0.79396 
    178         Nb59         Mo23      2.81620       0   0   0           -0.75628 
    179         Ta89         Mo23      2.81104       0   0   0           -0.58242 
    180         Ta90         Mo23      2.82475       0   0   0           -0.52583 
    181         Ta93         Mo23      2.80016       0   0   0           -0.58913 
    182         Ta94         Mo23      2.81375       0   0   0           -0.60549 
    183         W109         Mo23      2.75988       0   0   1           -0.83556 
    184         W110         Mo23      2.74207       0   0   0           -0.82845 
    185         Nb47         Mo24      2.76988       0   0   0           -0.76989 
    186         Nb60         Mo24      2.78819       0   0   0           -0.84749 
    187         Ta91         Mo24      2.82225       0   0   0           -0.57118 
    188         Ta92         Mo24      2.81118       0   0   0           -0.60107 
    189         Ta95         Mo24      2.82052       0   0   0           -0.59763 
    190         Ta96         Mo24      2.80498       0   0   0           -0.54907 
    191         W111         Mo24      2.79764       0   0   0           -0.64433 
    192         W124         Mo24      2.78573       0   0   0           -0.71376 
    193         Ta65         Mo25      2.80167      -1   0   0           -0.40525 
    194         Ta66         Mo25      2.78383      -1   0   0           -0.39554 
    195         Ta68         Mo25      2.84023       0   0   1           -0.46835 
    196         Ta69         Mo25      2.83196       0   0   0           -0.47384 
    197         Ta93         Mo25      2.78701       0   0   0           -0.49129 
    198         Ta94         Mo25      2.76292       0   0   0           -0.38524 
    199         W122         Mo25      2.74878       0   0   0           -0.74574 
    200         W123         Mo25      2.75536       0   0   0           -0.71923 
    201         Nb56         Mo26      2.74488       0   0   0           -0.80903 
    202         Ta66         Mo26      2.77172      -1   0   0           -0.58422 
    203         Ta69         Mo26      2.81561       0   0   0           -0.45338 
    204         Ta70         Mo26      2.81927       0   0   0           -0.56775 
    205         Ta94         Mo26      2.80371       0   0   0           -0.63395 
    206         Ta95         Mo26      2.80173       0   0   0           -0.43547 
    207          W99         Mo26      2.75998       0   0   0           -0.67753 
    208         W123         Mo26      2.77355       0   0   0           -0.61804 
    209         Nb56         Mo27      2.76557       0   0   0           -0.83674 
    210         Nb57         Mo27      2.77202       0   0   0           -0.71375 
    211         Ta67         Mo27      2.77674       0   0   0           -0.52261 
    212         Ta70         Mo27      2.79033       0   0   0           -0.51590 
    213         Ta71         Mo27      2.80870       0   0   0           -0.40852 
    214         Ta95         Mo27      2.77362       0   0   0           -0.32749 
    215         Ta96         Mo27      2.81055       0   0   0           -0.53291 
    216          W99         Mo27      2.76454       0   0   0           -0.71298 
    217         Nb57         Mo28      2.75798       0   0   0           -0.61839 
    218         Ta65         Mo28      2.79480      -1   0  -1           -0.47251 
    219         Ta67         Mo28      2.78176       0   0   0           -0.38113 
    220         Ta68         Mo28      2.81368       0   0   0           -0.44901 
    221         Ta71         Mo28      2.83349       0   0   0           -0.50642 
    222         Ta93         Mo28      2.79119       0   0  -1           -0.49781 
    223         Ta96         Mo28      2.80976       0   0   0           -0.45061 
    224         W122         Mo28      2.77782       0   0  -1           -0.62645 
    225         Nb58         Mo29      2.76357       0   0   0           -0.70494 
    226         Nb59         Mo29      2.76770       0   0   0           -0.80141 
    227         Ta68         Mo29      2.80048       0   0   1           -0.56054 
    228         Ta69         Mo29      2.80269       0   0   0           -0.52949 
    229         Ta72         Mo29      2.80071      -1   0   1           -0.43358 
    230         Ta73         Mo29      2.79686      -1   0   0           -0.43878 
    231         Ta93         Mo29      2.78114       0   0   0           -0.37853 
    232         Ta94         Mo29      2.78375       0   0   0           -0.41942 
    233         Nb59         Mo30      2.76895       0   0   0           -0.65800 
    234         Ta69         Mo30      2.82819       0   0   0           -0.55787 
    235         Ta70         Mo30      2.81609       0   0   0           -0.46425 
    236         Ta73         Mo30      2.81599      -1   0   0           -0.36128 
    237         Ta74         Mo30      2.79889      -1   0   0           -0.45877 
    238         Ta94         Mo30      2.81331       0   0   0           -0.40908 
    239         Ta95         Mo30      2.78820       0   0   0           -0.42892 
    240         W124         Mo30      2.75384       0   0   0           -0.69340 
    241         Nb60         Mo31      2.74997       0   0   0           -0.86819 
    242         Ta70         Mo31      2.80972       0   0   0           -0.53428 
    243         Ta71         Mo31      2.81735       0   0   0           -0.58918 
    244         Ta74         Mo31      2.78835      -1   0   0           -0.56631 
    245         Ta75         Mo31      2.80223      -1   0   0           -0.42907 
    246         Ta95         Mo31      2.77899       0   0   0           -0.49549 
    247         Ta96         Mo31      2.78496       0   0   0           -0.48216 
    248         W124         Mo31      2.75197       0   0   0           -0.85733 
    249         Nb58         Mo32      2.75916       0   0  -1           -0.63291 
    250         Nb60         Mo32      2.75277       0   0   0           -0.67563 
    251         Ta68         Mo32      2.80786       0   0   0           -0.50775 
    252         Ta71         Mo32      2.80666       0   0   0           -0.47997 
    253         Ta72         Mo32      2.80571      -1   0   0           -0.42241 
    254         Ta75         Mo32      2.80031      -1   0   0           -0.36323 
    255         Ta93         Mo32      2.79581       0   0  -1           -0.37891 
    256         Ta96         Mo32      2.78175       0   0   0           -0.36923 
    257         Nb61         Nb33      2.84986       1  -1   0           -0.80929 
    258         Nb63         Nb33      2.83853       1  -1   1           -0.63014 
    259         W126         Nb33      2.80413       1   0   0           -0.63629 
    260         W128         Nb33      2.80926       1   0   1           -0.60084 
    261         Nb35         Nb34      2.83207       0  -1   0           -0.76863 
    262         Nb63         Nb34      2.85901       1  -1   0           -0.76016 
    263         W125         Nb34      2.82194       1  -1   0           -0.50571 
    264         W127         Nb34      2.82468       1   0   0           -0.67394 
    265         W128         Nb34      2.80630       1   0   0           -0.44076 
    266         Nb37         Nb35      2.83850       0   0   0           -0.75312 
    267         Ta67         Nb35      2.84841       1   0   0           -0.51597 
    268         Ta78         Nb35      2.83217       0   1   0           -0.45172 
    269         Ta79         Nb35      2.88619       0   1   0           -0.46036 
    270          W98         Nb35      2.77275       0   1   0           -0.48413 
    271          W99         Nb35      2.78848       1   0   0           -0.66511 
    272         W101         Nb35      2.76849       0   0   0           -0.50962 
    273         Nb39         Nb36      2.85365       0   0   0           -0.54397 
    274         Nb40         Nb36      2.84322       0   0   0           -0.78849 
    275         W100         Nb36      2.80859       0   0   0           -0.54939 
    276         W102         Nb36      2.83121       0   0   0           -0.47750 
    277         W103         Nb36      2.80964       0   0   0           -0.49298 
    278         Nb38         Nb37      2.83718       0   0   0           -0.70956 
    279         Nb41         Nb37      2.83401       0   0   0           -0.78436 
    280         W104         Nb37      2.84497       0   0   0           -0.51310 
    281         W105         Nb37      2.81708       0   0   0           -0.41994 
    282         Nb42         Nb38      2.83651       0   1   0           -0.68015 
    283         Nb45         Nb38      2.83578       0   0   0           -0.70861 
    284         Nb46         Nb38      2.81882       0   0   0           -0.62050 
    285         Ta78         Nb38      2.85447       0   1   0           -0.42088 
    286         Ta79         Nb38      2.84780       0   1   0           -0.37979 
    287         W101         Nb38      2.83047       0   0   0           -0.53049 
    288         W108         Nb38      2.82001       0   1   0           -0.48442 
    289         Nb43         Nb39      2.78777       0   0   0           -0.64762 
    290         Nb44         Nb39      2.80621       0   0   0           -0.78966 
    291         Ta80         Nb39      2.86427       0   0   1           -0.44176 
    292         Ta81         Nb39      2.84598       0   0   1           -0.38810 
    293         Ta82         Nb39      2.85201       0   0   0           -0.48251 
    294         W109         Nb39      2.78757       0   0   1           -0.51537 
    295         W110         Nb39      2.77493       0   0   0           -0.43985 
    296         Nb44         Nb40      2.82311       0   0   0           -0.70911 
    297         Nb45         Nb40      2.78925       0   0   0           -0.75872 
    298         Nb47         Nb40      2.83817       0   0   0           -0.68170 
    299         Ta82         Nb40      2.85310       0   0   0           -0.46111 
    300         Ta83         Nb40      2.85698       0   0   0           -0.51805 
    301         W101         Nb40      2.80224       0   0   0           -0.55838 
    302         W110         Nb40      2.83725       0   0   0           -0.58993 
    303         Nb45         Nb41      2.82715       0   0   0           -0.76611 
    304         Nb46         Nb41      2.81136       0   0   0           -0.76367 
    305         Nb47         Nb41      2.82079       0   0   0           -0.66807 
    306         Ta83         Nb41      2.85201       0   0   0           -0.46095 
    307         Ta84         Nb41      2.84988       0   0   0           -0.43541 
    308         W101         Nb41      2.83352       0   0   0           -0.54155 
    309         W111         Nb41      2.83316       0   0   0           -0.60319 
    310         Nb48         Nb42      2.86067       0  -1   0           -0.74006 
    311         Nb52         Nb42      2.82931       0   0   0           -0.61724 
    312         W103         Nb42      2.78868       0  -1   0           -0.36435 
    313         W113         Nb42      2.84085       0  -1   0           -0.61734 
    314         W119         Nb42      2.79633       0   0   0           -0.43555 
    315         Nb49         Nb43      2.79551       0   0   1           -0.88264 
    316         W102         Nb43      2.77012       0   0   0           -0.31110 
    317         W104         Nb43      2.78160       0   0   1           -0.41543 
    318         W105         Nb43      2.80802       0   0   1           -0.36843 
    319         W112         Nb43      2.80752       0   0   0           -0.73230 
    320         W114         Nb43      2.78012       0   0   1           -0.56307 
    321         W115         Nb43      2.79542       0   0   0           -0.51585 
    322         W102         Nb44      2.78709       0   0   0           -0.44314 
    323         W103         Nb44      2.79989       0   0   0           -0.49154 
    324         W112         Nb44      2.78506       0   0   0           -0.68328 
    325         W113         Nb44      2.75868       0   0   0           -0.62127 
    326         W115         Nb44      2.79188       0   0   0           -0.54424 
    327         W116         Nb44      2.78987       0   0   0           -0.51100 
    328         Nb48         Nb45      2.81383       0   0   0           -0.58057 
    329         W103         Nb45      2.80933       0   0   0           -0.53987 
    330         W113         Nb45      2.80161       0   0   0           -0.60880 
    331         W116         Nb45      2.78933       0   0   0           -0.36048 
    332         W117         Nb45      2.81570       0   0   0           -0.42804 
    333         Nb48         Nb46      2.81013       0   0   0           -0.74462 
    334         Nb49         Nb46      2.77858       0   0   0           -0.71558 
    335         W104         Nb46      2.78699       0   0   0           -0.52175 
    336         W105         Nb46      2.77541       0   0   0           -0.40653 
    337         W114         Nb46      2.81735       0   0   0           -0.54934 
    338         W117         Nb46      2.80274       0   0   0           -0.45013 
    339         Nb50         Nb47      2.78554       0   0   0           -0.58786 
    340         W116         Nb47      2.84038       0   0   0           -0.57307 
    341         W117         Nb47      2.79667       0   0   0           -0.52264 
    342         Nb54         Nb48      2.81090       0   0   0           -0.54221 
    343         Nb55         Nb48      2.80014       0   0   0           -0.74059 
    344         Nb56         Nb48      2.85842       0   0   0           -0.81919 
    345         Nb57         Nb48      2.83114       0   0   0           -0.75565 
    346         W108         Nb48      2.83820       0   1   0           -0.54466 
    347         Nb57         Nb49      2.82289       0   0   0           -0.77797 
    348         Ta93         Nb49      2.82467       0   0  -1           -0.46303 
    349         Ta96         Nb49      2.85430       0   0   0           -0.44735 
    350         W109         Nb49      2.79560       0   0   0           -0.46548 
    351         W111         Nb49      2.81783       0   0   0           -0.53500 
    352         W122         Nb49      2.79527       0   0  -1           -0.45244 
    353         Nb59         Nb50      2.80129       0   0   0           -0.72190 
    354         Ta90         Nb50      2.82850       0   0   0           -0.42538 
    355         Ta91         Nb50      2.82616       0   0   0           -0.37363 
    356         Ta94         Nb50      2.83909       0   0   0           -0.43303 
    357         Ta95         Nb50      2.83750       0   0   0           -0.40302 
    358         W110         Nb50      2.79155       0   0   0           -0.40411 
    359         W124         Nb50      2.80345       0   0   0           -0.58210 
    360         Nb58         Nb51      2.85323       0   0   0           -0.76995 