20
Lattice="3.168436 0.0 0.0 0.0 7.084803 0.0 0.0 0.0 28.33921" Properties=species:S:1:pos:R:3:forces:R:3 energy=-208.29086882 config_type=surface pbc="T T T"
Mo       0.00000000       4.24097016       5.66976907       0.00000000      -0.01699373       0.00209772
Mo       0.00000000       1.39793790       4.26442764       0.00000000       0.02759536       0.00741959
Mo       0.00000000       5.65199370       2.86197682       0.00000000      -0.02621707      -0.04633367
Mo       0.00000000       2.89247001       1.44702840       0.00000000       0.03132237       0.03109207
Mo       0.00000000       6.99126943       0.20560097       0.00000000      -0.00699514       0.04706954
Mo       1.58421800       3.52657405       3.50714727       0.00000000      -0.00326094       0.01608451
Mo       1.58421800       0.72241611       2.08715448       0.00000000       0.00986883      -0.01647521
Mo       1.58421800       5.01402136       0.76017097       0.00000000      -0.02081216       0.01419922
Mo       1.58421800       2.13633733       6.35659816       0.00000000       0.02270756      -0.00413121
Mo       1.58421800       6.37370841       4.95910670       0.00000000      -0.00015196       0.04248754
Mo       0.00000000       4.19622254      12.70095378       0.00000000       0.02081216      -0.01419922
Mo       0.00000000       1.40302479      11.37397027       0.00000000      -0.00986883       0.01647521
Mo       0.00000000       5.68366985       9.95397748       0.00000000       0.00326094      -0.01608451
Mo       0.00000000       2.83653549       8.50201805       0.00000000       0.00015196      -0.04248754
Mo       0.00000000       7.07390657       7.10452659       0.00000000      -0.02270756       0.00413121
Mo       1.58421800       3.55825020      10.59914793       0.00000000       0.02621707       0.04633367
Mo       1.58421800       0.72750300       9.19669711       0.00000000      -0.02759536      -0.00741959
Mo       1.58421800       4.96927374       7.79135568       0.00000000       0.01699373      -0.00209772
Mo       1.58421800       2.21897447      13.25552378       0.00000000       0.00699514      -0.04706954
Mo       1.58421800       6.31777389      12.01409635       0.00000000      -0.03132237      -0.03109207
